<?xml version="1.0" encoding="ISO-8859-1"?>
<modeling>
 <generator>
  <i name="program" type="string">vasp </i>
  <i name="version" type="string">5.4.4.18Apr17-6-g9f103f2a35  </i>
  <i name="subversion" type="string">(build Jul 31 2017 11:33:29) complex            parallel </i>
  <i name="platform" type="string">LinuxIFC </i>
  <i name="date" type="string">2021 09 22 </i>
  <i name="time" type="string">07:35:41 </i>
 </generator>
 <incar>
  <i type="string" name="SYSTEM"> La2O2S</i>
  <i type="string" name="PREC">normal</i>
  <i type="int" name="NELMIN">     4</i>
  <i type="int" name="IBRION">     2</i>
  <i type="int" name="NFREE">    10</i>
  <i name="EDIFF">      0.00000100</i>
  <i name="EDIFFG">     -0.01000000</i>
  <i type="int" name="NSW">   200</i>
  <i type="int" name="ISIF">     3</i>
  <i name="ENCUT">    600.00000000</i>
  <i name="ENAUG">    900.00000000</i>
  <i type="int" name="ISMEAR">    -5</i>
  <i type="logical" name="LWAVE"> F  </i>
  <i type="logical" name="LCHARG"> F  </i>
  <v type="int" name="KPOINT_BSE">    -1     0     0     0</v>
 </incar>
 <structure name="primitive_cell" >
  <crystal>
   <varray name="basis" >
    <v>      11.17850000       0.00000000       0.00000000 </v>
    <v>       0.00000000       9.57460000       0.00000000 </v>
    <v>       0.00000000       0.00000000      11.18240000 </v>
   </varray>
   <i name="volume">   1196.84853820 </i>
   <varray name="rec_basis" >
    <v>       0.08945744       0.00000000       0.00000000 </v>
    <v>       0.00000000       0.10444301       0.00000000 </v>
    <v>       0.00000000       0.00000000       0.08942624 </v>
   </varray>
  </crystal>
  <varray name="positions" >
   <v>      -0.37461000      -0.00016000       0.43687000 </v>
   <v>      -0.24987000       0.07798000       0.31246000 </v>
   <v>      -0.49987000      -0.07798000       0.31246000 </v>
   <v>      -0.25013000      -0.07798000      -0.43754000 </v>
   <v>       0.49987000       0.07798000      -0.43754000 </v>
   <v>      -0.12461000       0.00017000       0.43687000 </v>
   <v>      -0.25013000       0.29519000       0.31282000 </v>
   <v>       0.49987000      -0.29519000       0.31282000 </v>
   <v>      -0.24987000      -0.29519000      -0.43719000 </v>
   <v>      -0.49987000       0.29519000      -0.43719000 </v>
   <v>      -0.25005000      -0.32677000       0.31286000 </v>
   <v>       0.49995000       0.32677000       0.31286000 </v>
   <v>      -0.24995000       0.32677000      -0.43714000 </v>
   <v>      -0.49995000      -0.32677000      -0.43714000 </v>
   <v>      -0.12539000       0.00017000       0.18687000 </v>
   <v>      -0.12539000       0.00017000      -0.31313000 </v>
   <v>       0.37461000       0.00017000       0.18687000 </v>
   <v>       0.37461000       0.00017000      -0.31313000 </v>
   <v>      -0.25013000      -0.07798000       0.06246000 </v>
   <v>       0.00013000      -0.07798000       0.31246000 </v>
   <v>      -0.00013000       0.07798000      -0.43754000 </v>
   <v>       0.49987000       0.07798000       0.06246000 </v>
   <v>       0.25013000       0.07798000       0.31246000 </v>
   <v>      -0.24987000       0.07798000      -0.18754000 </v>
   <v>       0.24987000      -0.07798000      -0.43754000 </v>
   <v>      -0.49987000      -0.07798000      -0.18754000 </v>
   <v>      -0.24987000      -0.29519000       0.06281000 </v>
   <v>      -0.00013000      -0.29519000       0.31282000 </v>
   <v>      -0.49987000       0.29519000       0.06281000 </v>
   <v>       0.00013000       0.29519000      -0.43719000 </v>
   <v>       0.24987000       0.29519000       0.31282000 </v>
   <v>       0.25013000      -0.29519000      -0.43719000 </v>
   <v>      -0.25013000       0.29519000      -0.18718000 </v>
   <v>       0.49987000      -0.29519000      -0.18718000 </v>
   <v>      -0.24995000       0.32677000       0.06286000 </v>
   <v>      -0.49995000      -0.32677000       0.06286000 </v>
   <v>      -0.00005000       0.32677000       0.31286000 </v>
   <v>       0.00005000      -0.32677000      -0.43714000 </v>
   <v>       0.24995000      -0.32677000       0.31286000 </v>
   <v>       0.25005000       0.32677000      -0.43714000 </v>
   <v>      -0.25005000      -0.32677000      -0.18714000 </v>
   <v>       0.49995000       0.32677000      -0.18714000 </v>
   <v>      -0.37461000      -0.00016000      -0.06313000 </v>
   <v>      -0.00013000       0.07798000       0.06246000 </v>
   <v>       0.24987000      -0.07798000       0.06246000 </v>
   <v>       0.00013000      -0.07798000      -0.18754000 </v>
   <v>       0.25013000       0.07798000      -0.18754000 </v>
   <v>       0.12461000      -0.00016000      -0.31313000 </v>
   <v>      -0.12461000       0.00017000      -0.06313000 </v>
   <v>       0.00013000       0.29519000       0.06281000 </v>
   <v>       0.25013000      -0.29519000       0.06281000 </v>
   <v>      -0.00013000      -0.29519000      -0.18718000 </v>
   <v>       0.24987000       0.29519000      -0.18718000 </v>
   <v>       0.00005000      -0.32677000       0.06286000 </v>
   <v>       0.25005000       0.32677000       0.06286000 </v>
   <v>      -0.00005000       0.32677000      -0.18714000 </v>
   <v>       0.24995000      -0.32677000      -0.18714000 </v>
  </varray>
 </structure>
 <varray name="primitive_index" >
  <v type="int" >        1 </v>
  <v type="int" >       48 </v>
  <v type="int" >       49 </v>
  <v type="int" >       55 </v>
  <v type="int" >       50 </v>
  <v type="int" >        4 </v>
  <v type="int" >       16 </v>
  <v type="int" >       13 </v>
  <v type="int" >       23 </v>
  <v type="int" >       22 </v>
  <v type="int" >       33 </v>
  <v type="int" >       28 </v>
  <v type="int" >       38 </v>
  <v type="int" >       39 </v>
  <v type="int" >        5 </v>
  <v type="int" >        9 </v>
  <v type="int" >        3 </v>
  <v type="int" >        7 </v>
  <v type="int" >       47 </v>
  <v type="int" >       45 </v>
  <v type="int" >       54 </v>
  <v type="int" >       42 </v>
  <v type="int" >       44 </v>
  <v type="int" >       56 </v>
  <v type="int" >       51 </v>
  <v type="int" >       57 </v>
  <v type="int" >       15 </v>
  <v type="int" >       17 </v>
  <v type="int" >       14 </v>
  <v type="int" >       18 </v>
  <v type="int" >       12 </v>
  <v type="int" >       19 </v>
  <v type="int" >       24 </v>
  <v type="int" >       21 </v>
  <v type="int" >       30 </v>
  <v type="int" >       31 </v>
  <v type="int" >       32 </v>
  <v type="int" >       35 </v>
  <v type="int" >       29 </v>
  <v type="int" >       34 </v>
  <v type="int" >       41 </v>
  <v type="int" >       36 </v>
  <v type="int" >        8 </v>
  <v type="int" >       46 </v>
  <v type="int" >       43 </v>
  <v type="int" >       53 </v>
  <v type="int" >       52 </v>
  <v type="int" >        6 </v>
  <v type="int" >        2 </v>
  <v type="int" >       10 </v>
  <v type="int" >       11 </v>
  <v type="int" >       25 </v>
  <v type="int" >       20 </v>
  <v type="int" >       27 </v>
  <v type="int" >       26 </v>
  <v type="int" >       40 </v>
  <v type="int" >       37 </v>
 </varray>
 <kpoints>
  <generation param="Gamma">
   <v type="int" name="divisions">       2        2        2 </v>
   <v name="usershift">      0.00000000       0.00000000       0.00000000 </v>
   <v name="genvec1">      0.50000000       0.00000000       0.00000000 </v>
   <v name="genvec2">      0.00000000       0.50000000       0.00000000 </v>
   <v name="genvec3">      0.00000000       0.00000000       0.50000000 </v>
   <v name="shift">      0.00000000       0.00000000       0.00000000 </v>
  </generation>
  <varray name="kpointlist" >
   <v>       0.00000000       0.00000000       0.00000000 </v>
   <v>       0.50000000       0.00000000       0.00000000 </v>
   <v>       0.00000000       0.50000000       0.00000000 </v>
   <v>       0.50000000       0.50000000       0.00000000 </v>
   <v>       0.00000000       0.00000000       0.50000000 </v>
   <v>       0.50000000       0.00000000       0.50000000 </v>
   <v>       0.00000000       0.50000000       0.50000000 </v>
   <v>       0.50000000       0.50000000       0.50000000 </v>
  </varray>
  <varray name="weights" >
   <v>       0.12500000 </v>
   <v>       0.12500000 </v>
   <v>       0.12500000 </v>
   <v>       0.12500000 </v>
   <v>       0.12500000 </v>
   <v>       0.12500000 </v>
   <v>       0.12500000 </v>
   <v>       0.12500000 </v>
  </varray>
  <varray name="tetrahedronlist"  type="int" >
   <v type="int" >        2        1        2        4        5 </v>
   <v type="int" >        2        1        3        4        5 </v>
   <v type="int" >        2        3        4        5        7 </v>
   <v type="int" >        2        2        4        5        6 </v>
   <v type="int" >        2        4        5        6        8 </v>
   <v type="int" >        2        4        5        7        8 </v>
   <v type="int" >        2        1        2        3        6 </v>
   <v type="int" >        2        2        3        4        6 </v>
   <v type="int" >        2        3        4        6        8 </v>
   <v type="int" >        2        1        3        5        6 </v>
   <v type="int" >        2        3        5        6        7 </v>
   <v type="int" >        2        3        6        7        8 </v>
   <v type="int" >        2        2        3        4        7 </v>
   <v type="int" >        2        1        2        3        7 </v>
   <v type="int" >        2        1        2        5        7 </v>
   <v type="int" >        2        2        4        7        8 </v>
   <v type="int" >        2        2        6        7        8 </v>
   <v type="int" >        2        2        5        6        7 </v>
   <v type="int" >        2        1        3        4        8 </v>
   <v type="int" >        2        1        2        4        8 </v>
   <v type="int" >        2        1        2        6        8 </v>
   <v type="int" >        2        1        3        7        8 </v>
   <v type="int" >        2        1        5        7        8 </v>
   <v type="int" >        2        1        5        6        8 </v>
  </varray>
  <i name="volumeweight">      0.02083333 </i>
 </kpoints>
 <parameters>
  <separator name="general" >
   <i type="string" name="SYSTEM">La2O2S</i>
   <i type="logical" name="LCOMPAT"> F  </i>
  </separator>
  <separator name="electronic" >
   <i type="string" name="PREC">normal</i>
   <i name="ENMAX">    600.00000000</i>
   <i name="ENAUG">    900.00000000</i>
   <i name="EDIFF">      0.00000100</i>
   <i type="int" name="IALGO">    38</i>
   <i type="int" name="IWAVPR">    11</i>
   <i type="int" name="NBANDS">   280</i>
   <i name="NELECT">    452.00000000</i>
   <i type="int" name="TURBO">     0</i>
   <i type="int" name="IRESTART">     0</i>
   <i type="int" name="NREBOOT">     0</i>
   <i type="int" name="NMIN">     0</i>
   <i name="EREF">      0.00000000</i>
   <separator name="electronic smearing" >
    <i type="int" name="ISMEAR">    -5</i>
    <i name="SIGMA">      0.20000000</i>
    <i name="KSPACING">      0.50000000</i>
    <i type="logical" name="KGAMMA"> T  </i>
   </separator>
   <separator name="electronic projectors" >
    <i type="logical" name="LREAL"> F  </i>
    <v name="ROPT">      0.00000000      0.00000000      0.00000000      0.00000000      0.00000000</v>
    <i type="int" name="LMAXPAW">  -100</i>
    <i type="int" name="LMAXMIX">     2</i>
    <i type="logical" name="NLSPLINE"> F  </i>
   </separator>
   <separator name="electronic startup" >
    <i type="int" name="ISTART">     0</i>
    <i type="int" name="ICHARG">     2</i>
    <i type="int" name="INIWAV">     1</i>
   </separator>
   <separator name="electronic spin" >
    <i type="int" name="ISPIN">     1</i>
    <i type="logical" name="LNONCOLLINEAR"> F  </i>
    <v name="MAGMOM">      1.00000000      1.00000000      1.00000000      1.00000000      1.00000000      1.00000000      1.00000000      1.00000000      1.00000000      1.00000000      1.00000000      1.00000000      1.00000000      1.00000000      1.00000000      1.00000000      1.00000000      1.00000000      1.00000000      1.00000000
      1.00000000      1.00000000      1.00000000      1.00000000      1.00000000      1.00000000      1.00000000      1.00000000      1.00000000      1.00000000      1.00000000      1.00000000      1.00000000      1.00000000      1.00000000      1.00000000      1.00000000      1.00000000      1.00000000      1.00000000
      1.00000000      1.00000000      1.00000000      1.00000000      1.00000000      1.00000000      1.00000000      1.00000000      1.00000000      1.00000000      1.00000000      1.00000000      1.00000000      1.00000000      1.00000000      1.00000000      1.00000000</v>
    <i name="NUPDOWN">     -1.00000000</i>
    <i type="logical" name="LSORBIT"> F  </i>
    <v name="SAXIS">      0.00000000      0.00000000      1.00000000</v>
    <i type="logical" name="LSPIRAL"> F  </i>
    <v name="QSPIRAL">      0.00000000      0.00000000      0.00000000</v>
    <i type="logical" name="LZEROZ"> F  </i>
   </separator>
   <separator name="electronic exchange-correlation" >
    <i type="logical" name="LASPH"> F  </i>
    <i type="logical" name="LMETAGGA"> F  </i>
   </separator>
   <separator name="electronic convergence" >
    <i type="int" name="NELM">    60</i>
    <i type="int" name="NELMDL">    -5</i>
    <i type="int" name="NELMIN">     4</i>
    <i name="ENINI">    600.00000000</i>
    <separator name="electronic convergence detail" >
     <i type="logical" name="LDIAG"> T  </i>
     <i type="logical" name="LSUBROT"> F  </i>
     <i name="WEIMIN">      0.00100000</i>
     <i name="EBREAK">      0.00000000</i>
     <i name="DEPER">      0.30000000</i>
     <i type="int" name="NRMM">     4</i>
     <i name="TIME">      0.40000000</i>
    </separator>
   </separator>
   <separator name="electronic mixer" >
    <i name="AMIX">      0.40000000</i>
    <i name="BMIX">      1.00000000</i>
    <i name="AMIN">      0.10000000</i>
    <i name="AMIX_MAG">      1.60000000</i>
    <i name="BMIX_MAG">      1.00000000</i>
    <separator name="electronic mixer details" >
     <i type="int" name="IMIX">     4</i>
     <i type="logical" name="MIXFIRST"> F  </i>
     <i type="int" name="MAXMIX">   -45</i>
     <i name="WC">    100.00000000</i>
     <i type="int" name="INIMIX">     1</i>
     <i type="int" name="MIXPRE">     1</i>
     <i type="int" name="MREMOVE">     5</i>
    </separator>
   </separator>
   <separator name="electronic dipolcorrection" >
    <i type="logical" name="LDIPOL"> F  </i>
    <i type="logical" name="LMONO"> F  </i>
    <i type="int" name="IDIPOL">     0</i>
    <i name="EPSILON">      1.00000000</i>
    <v name="DIPOL">   -100.00000000   -100.00000000   -100.00000000</v>
    <i name="EFIELD">      0.00000000</i>
   </separator>
  </separator>
  <separator name="grids" >
   <i type="int" name="NGX">    70</i>
   <i type="int" name="NGY">    60</i>
   <i type="int" name="NGZ">    70</i>
   <i type="int" name="NGXF">   140</i>
   <i type="int" name="NGYF">   120</i>
   <i type="int" name="NGZF">   140</i>
   <i type="logical" name="ADDGRID"> F  </i>
  </separator>
  <separator name="ionic" >
   <i type="int" name="NSW">   200</i>
   <i type="int" name="IBRION">     2</i>
   <i type="int" name="MDALGO">     0</i>
   <i type="int" name="ISIF">     3</i>
   <i name="PSTRESS">      0.00000000</i>
   <i name="EDIFFG">     -0.01000000</i>
   <i type="int" name="NFREE">    10</i>
   <i name="POTIM">      0.50000000</i>
   <i name="SMASS">     -3.00000000</i>
   <i name="SCALEE">      1.00000000</i>
  </separator>
  <separator name="ionic md" >
   <i name="TEBEG">      0.00010000</i>
   <i name="TEEND">      0.00010000</i>
   <i type="int" name="NBLOCK">     1</i>
   <i type="int" name="KBLOCK">   200</i>
   <i type="int" name="NPACO">   256</i>
   <i name="APACO">     16.00000000</i>
  </separator>
  <separator name="symmetry" >
   <i type="int" name="ISYM">     2</i>
   <i name="SYMPREC">      0.00001000</i>
  </separator>
  <separator name="dos" >
   <i type="int" name="LORBIT">     0</i>
   <v name="RWIGS">     -1.00000000     -1.00000000     -1.00000000     -1.00000000     -1.00000000</v>
   <i type="int" name="NEDOS">   301</i>
   <i name="EMIN">     10.00000000</i>
   <i name="EMAX">    -10.00000000</i>
   <i name="EFERMI">      0.00000000</i>
  </separator>
  <separator name="writing" >
   <i type="int" name="NWRITE">     2</i>
   <i type="logical" name="LWAVE"> F  </i>
   <i type="logical" name="LDOWNSAMPLE"> F  </i>
   <i type="logical" name="LCHARG"> F  </i>
   <i type="logical" name="LPARD"> F  </i>
   <i type="logical" name="LVTOT"> F  </i>
   <i type="logical" name="LVHAR"> F  </i>
   <i type="logical" name="LELF"> F  </i>
   <i type="logical" name="LOPTICS"> F  </i>
   <v name="STM">      0.00000000      0.00000000      0.00000000      0.00000000      0.00000000      0.00000000      0.00000000</v>
  </separator>
  <separator name="performance" >
   <i type="int" name="NPAR">    28</i>
   <i type="int" name="NSIM">     4</i>
   <i type="int" name="NBLK">    -1</i>
   <i type="logical" name="LPLANE"> T  </i>
   <i type="logical" name="LSCALAPACK"> T  </i>
   <i type="logical" name="LSCAAWARE"> F  </i>
   <i type="logical" name="LSCALU"> F  </i>
   <i type="logical" name="LASYNC"> F  </i>
   <i type="logical" name="LORBITALREAL"> F  </i>
  </separator>
  <separator name="miscellaneous" >
   <i type="int" name="IDIOT">     3</i>
   <i type="int" name="ISPECIAL">     0</i>
   <i type="logical" name="LMUSIC"> F  </i>
   <v name="POMASS">      7.01000000     24.30500000    208.98000000     32.06600000     16.00000000</v>
   <v name="DARWINR">      0.00000000      0.00000000      0.00000000      0.00000000      0.00000000</v>
   <v name="DARWINV">      1.00000000      1.00000000      1.00000000      1.00000000      1.00000000</v>
   <i type="logical" name="LCORR"> T  </i>
  </separator>
  <i type="logical" name="GGA_COMPAT"> T  </i>
  <i type="logical" name="LBERRY"> F  </i>
  <i type="int" name="ICORELEVEL">     0</i>
  <i type="logical" name="LDAU"> F  </i>
  <i type="int" name="I_CONSTRAINED_M">     0</i>
  <separator name="electronic exchange-correlation" >
   <i type="string" name="GGA">--</i>
   <i type="int" name="VOSKOWN">     0</i>
   <i type="logical" name="LHFCALC"> F  </i>
   <i type="string" name="PRECFOCK"></i>
   <i type="logical" name="LSYMGRAD"> F  </i>
   <i type="logical" name="LHFONE"> F  </i>
   <i type="logical" name="LRHFCALC"> F  </i>
   <i type="logical" name="LTHOMAS"> F  </i>
   <i type="logical" name="LMODELHF"> F  </i>
   <i name="ENCUT4O">     -1.00000000</i>
   <i type="int" name="EXXOEP">     0</i>
   <i type="int" name="FOURORBIT">     0</i>
   <i name="AEXX">      0.00000000</i>
   <i name="HFALPHA">      0.00000000</i>
   <i name="MCALPHA">      0.00000000</i>
   <i name="ALDAX">      1.00000000</i>
   <i name="AGGAX">      1.00000000</i>
   <i name="ALDAC">      1.00000000</i>
   <i name="AGGAC">      1.00000000</i>
   <i type="int" name="NKREDX">     1</i>
   <i type="int" name="NKREDY">     1</i>
   <i type="int" name="NKREDZ">     1</i>
   <i type="logical" name="SHIFTRED"> F  </i>
   <i type="logical" name="ODDONLY"> F  </i>
   <i type="logical" name="EVENONLY"> F  </i>
   <i type="int" name="LMAXFOCK">     0</i>
   <i type="int" name="NMAXFOCKAE">     0</i>
   <i type="logical" name="LFOCKAEDFT"> F  </i>
   <i name="HFSCREEN">      0.00000000</i>
   <i name="HFSCREENC">      0.00000000</i>
   <i type="int" name="NBANDSGWLOW">     0</i>
  </separator>
  <separator name="vdW DFT" >
   <i type="logical" name="LUSE_VDW"> F  </i>
   <i name="Zab_VDW">     -0.84910000</i>
   <i name="PARAM1">      0.12340000</i>
   <i name="PARAM2">      1.00000000</i>
   <i name="PARAM3">      0.00000000</i>
  </separator>
  <separator name="model GW" >
   <i type="int" name="MODEL_GW">     0</i>
   <i name="MODEL_EPS0">     12.59840567</i>
   <i name="MODEL_ALPHA">      1.00000000</i>
  </separator>
  <separator name="linear response parameters" >
   <i type="logical" name="LEPSILON"> F  </i>
   <i type="logical" name="LRPA"> F  </i>
   <i type="logical" name="LNABLA"> F  </i>
   <i type="logical" name="LVEL"> F  </i>
   <i type="int" name="KINTER">     0</i>
   <i name="CSHIFT">      0.10000000</i>
   <i name="OMEGAMAX">     -1.00000000</i>
   <i name="DEG_THRESHOLD">      0.00200000</i>
   <i name="RTIME">     -0.10000000</i>
   <i name="WPLASMAI">      0.00000000</i>
   <v name="DFIELD">      0.00000000      0.00000000      0.00000000</v>
   <v name="WPLASMA">      0.00000000      0.00000000      0.00000000      0.00000000      0.00000000      0.00000000      0.00000000      0.00000000      0.00000000</v>
  </separator>
  <separator name="orbital magnetization" >
   <i type="logical" name="NUCIND"> F  </i>
   <v name="MAGPOS">      0.00000000      0.00000000      0.00000000</v>
   <i type="logical" name="LNICSALL"> T  </i>
   <i type="logical" name="ORBITALMAG"> F  </i>
   <i type="logical" name="LMAGBLOCH"> F  </i>
   <i type="logical" name="LCHIMAG"> F  </i>
   <i type="logical" name="LGAUGE"> T  </i>
   <i type="int" name="MAGATOM">     0</i>
   <v name="MAGDIPOL">      0.00000000      0.00000000      0.00000000</v>
   <v name="AVECCONST">      0.00000000      0.00000000      0.00000000</v>
  </separator>
  <separator name="response functions" >
   <i type="logical" name="LADDER"> F  </i>
   <i type="logical" name="LRPAFORCE"> F  </i>
   <i type="logical" name="LFXC"> F  </i>
   <i type="logical" name="LHARTREE"> T  </i>
   <i type="int" name="IBSE">     0</i>
   <v type="int" name="KPOINT">    -1     0     0     0</v>
   <i type="logical" name="LTCTE"> F  </i>
   <i type="logical" name="LTETE"> F  </i>
   <i type="logical" name="LTRIPLET"> F  </i>
   <i type="logical" name="LFXCEPS"> F  </i>
   <i type="logical" name="LFXHEG"> F  </i>
   <i type="int" name="NATURALO">     2</i>
   <i type="logical" name="L2ORDER"> F  </i>
   <i type="logical" name="LMP2LT"> F  </i>
   <i type="logical" name="LUSEW"> F  </i>
   <i name="ENCUTGW">     -2.00000000</i>
   <i name="ENCUTGWSOFT">     -2.00000000</i>
   <i name="ENCUTLF">     -1.00000000</i>
   <i type="int" name="LMAXMP2">    -1</i>
   <i name="SCISSOR">      0.00000000</i>
   <i type="int" name="NOMEGA">     0</i>
   <i type="int" name="NOMEGAR">     0</i>
   <i type="int" name="NBANDSGW">    -1</i>
   <i type="int" name="NBANDSO">    -1</i>
   <i type="int" name="NBANDSV">    -1</i>
   <i type="int" name="NELM">     1</i>
   <i type="int" name="NELMHF">     1</i>
   <i type="int" name="DIM">     3</i>
   <i type="int" name="ANTIRES">     0</i>
   <i name="OMEGAMAX">    -30.00000000</i>
   <i name="OMEGAMIN">    -30.00000000</i>
   <i name="OMEGATL">   -200.00000000</i>
   <i type="int" name="OMEGAGRID">   140</i>
   <i name="CSHIFT">     -0.10000000</i>
   <i type="logical" name="SELFENERGY"> F  </i>
   <i type="logical" name="LSPECTRAL"> F  </i>
   <i type="logical" name="LSPECTRALGW"> F  </i>
   <i type="logical" name="LSINGLES"> F  </i>
   <i type="logical" name="LFERMIGW"> F  </i>
   <i type="logical" name="ODDONLYGW"> F  </i>
   <i type="logical" name="EVENONLYGW"> F  </i>
   <i type="int" name="NKREDLFX">     1</i>
   <i type="int" name="NKREDLFY">     1</i>
   <i type="int" name="NKREDLFZ">     1</i>
   <i type="int" name="MAXMEM">  2800</i>
   <i type="int" name="TELESCOPE">     0</i>
   <i type="int" name="TAUPAR">     1</i>
   <i type="int" name="OMEGAPAR">    -1</i>
   <i name="LAMBDA">      1.00000000</i>
  </separator>
  <separator name="External order field" >
   <i name="OFIELD_KAPPA">      0.00000000</i>
   <v name="OFIELD_K">      0.00000000      0.00000000      0.00000000</v>
   <i name="OFIELD_Q6_NEAR">      0.00000000</i>
   <i name="OFIELD_Q6_FAR">      0.00000000</i>
   <i name="OFIELD_A">      0.00000000</i>
  </separator>
 </parameters>
 <atominfo>
  <atoms>      57 </atoms>
  <types>       5 </types>
  <array name="atoms" >
   <dimension dim="1">ion</dimension>
   <field type="string">element</field>
   <field type="int">atomtype</field>
   <set>
    <rc><c>Li</c><c>   1</c></rc>
    <rc><c>Li</c><c>   1</c></rc>
    <rc><c>Mg</c><c>   2</c></rc>
    <rc><c>Mg</c><c>   2</c></rc>
    <rc><c>Mg</c><c>   2</c></rc>
    <rc><c>Mg</c><c>   2</c></rc>
    <rc><c>Mg</c><c>   2</c></rc>
    <rc><c>Mg</c><c>   2</c></rc>
    <rc><c>Mg</c><c>   2</c></rc>
    <rc><c>Bi</c><c>   3</c></rc>
    <rc><c>Bi</c><c>   3</c></rc>
    <rc><c>Bi</c><c>   3</c></rc>
    <rc><c>Bi</c><c>   3</c></rc>
    <rc><c>Bi</c><c>   3</c></rc>
    <rc><c>Bi</c><c>   3</c></rc>
    <rc><c>Bi</c><c>   3</c></rc>
    <rc><c>Bi</c><c>   3</c></rc>
    <rc><c>Bi</c><c>   3</c></rc>
    <rc><c>Bi</c><c>   3</c></rc>
    <rc><c>Bi</c><c>   3</c></rc>
    <rc><c>Bi</c><c>   3</c></rc>
    <rc><c>Bi</c><c>   3</c></rc>
    <rc><c>Bi</c><c>   3</c></rc>
    <rc><c>Bi</c><c>   3</c></rc>
    <rc><c>Bi</c><c>   3</c></rc>
    <rc><c>S </c><c>   4</c></rc>
    <rc><c>S </c><c>   4</c></rc>
    <rc><c>S </c><c>   4</c></rc>
    <rc><c>S </c><c>   4</c></rc>
    <rc><c>S </c><c>   4</c></rc>
    <rc><c>S </c><c>   4</c></rc>
    <rc><c>S </c><c>   4</c></rc>
    <rc><c>S </c><c>   4</c></rc>
    <rc><c>S </c><c>   4</c></rc>
    <rc><c>S </c><c>   4</c></rc>
    <rc><c>S </c><c>   4</c></rc>
    <rc><c>S </c><c>   4</c></rc>
    <rc><c>S </c><c>   4</c></rc>
    <rc><c>S </c><c>   4</c></rc>
    <rc><c>S </c><c>   4</c></rc>
    <rc><c>S </c><c>   4</c></rc>
    <rc><c>O </c><c>   5</c></rc>
    <rc><c>O </c><c>   5</c></rc>
    <rc><c>O </c><c>   5</c></rc>
    <rc><c>O </c><c>   5</c></rc>
    <rc><c>O </c><c>   5</c></rc>
    <rc><c>O </c><c>   5</c></rc>
    <rc><c>O </c><c>   5</c></rc>
    <rc><c>O </c><c>   5</c></rc>
    <rc><c>O </c><c>   5</c></rc>
    <rc><c>O </c><c>   5</c></rc>
    <rc><c>O </c><c>   5</c></rc>
    <rc><c>O </c><c>   5</c></rc>
    <rc><c>O </c><c>   5</c></rc>
    <rc><c>O </c><c>   5</c></rc>
    <rc><c>O </c><c>   5</c></rc>
    <rc><c>O </c><c>   5</c></rc>
   </set>
  </array>
  <array name="atomtypes" >
   <dimension dim="1">type</dimension>
   <field type="int">atomspertype</field>
   <field type="string">element</field>
   <field>mass</field>
   <field>valence</field>
   <field type="string">pseudopotential</field>
   <set>
    <rc><c>   2</c><c>Li</c><c>      7.01000000</c><c>      3.00000000</c><c>  PAW_PBE Li_sv 10Sep2004               </c></rc>
    <rc><c>   7</c><c>Mg</c><c>     24.30500000</c><c>      2.00000000</c><c>  PAW_PBE Mg 13Apr2007                  </c></rc>
    <rc><c>  16</c><c>Bi</c><c>    208.98000000</c><c>     15.00000000</c><c>  PAW_PBE Bi_d 06Sep2000                </c></rc>
    <rc><c>  16</c><c>S </c><c>     32.06600000</c><c>      6.00000000</c><c>  PAW_PBE S 06Sep2000                   </c></rc>
    <rc><c>  16</c><c>O </c><c>     16.00000000</c><c>      6.00000000</c><c>  PAW_PBE O 08Apr2002                   </c></rc>
   </set>
  </array>
 </atominfo>
 <structure name="initialpos" >
  <crystal>
   <varray name="basis" >
    <v>      11.17850000       0.00000000       0.00000000 </v>
    <v>       0.00000000       9.57460000       0.00000000 </v>
    <v>       0.00000000       0.00000000      11.18240000 </v>
   </varray>
   <i name="volume">   1196.84853820 </i>
   <varray name="rec_basis" >
    <v>       0.08945744       0.00000000       0.00000000 </v>
    <v>       0.00000000       0.10444301       0.00000000 </v>
    <v>       0.00000000       0.00000000       0.08942624 </v>
   </varray>
  </crystal>
  <varray name="positions" >
   <v>       0.62539000       0.99984000       0.43687000 </v>
   <v>       0.87539000       0.00017000       0.93687000 </v>
   <v>       0.37461000       0.00017000       0.18687000 </v>
   <v>       0.87539000       0.00017000       0.43687000 </v>
   <v>       0.87461000       0.00017000       0.18687000 </v>
   <v>       0.12461000       0.99984000       0.68687000 </v>
   <v>       0.37461000       0.00017000       0.68687000 </v>
   <v>       0.62539000       0.99984000       0.93687000 </v>
   <v>       0.87461000       0.00017000       0.68687000 </v>
   <v>       0.00013000       0.29519000       0.06281000 </v>
   <v>       0.25013000       0.70481000       0.06281000 </v>
   <v>       0.24987000       0.29519000       0.31282000 </v>
   <v>       0.49987000       0.70481000       0.31282000 </v>
   <v>       0.50013000       0.29519000       0.06281000 </v>
   <v>       0.75013000       0.70481000       0.06281000 </v>
   <v>       0.74987000       0.29519000       0.31282000 </v>
   <v>       0.99987000       0.70481000       0.31282000 </v>
   <v>       0.00013000       0.29519000       0.56281000 </v>
   <v>       0.25013000       0.70481000       0.56281000 </v>
   <v>       0.24987000       0.29519000       0.81282000 </v>
   <v>       0.49987000       0.70481000       0.81282000 </v>
   <v>       0.50013000       0.29519000       0.56281000 </v>
   <v>       0.75013000       0.70481000       0.56281000 </v>
   <v>       0.74987000       0.29519000       0.81282000 </v>
   <v>       0.99987000       0.70481000       0.81282000 </v>
   <v>       0.25005000       0.32677000       0.06286000 </v>
   <v>       0.00005000       0.67323000       0.06286000 </v>
   <v>       0.49995000       0.32677000       0.31286000 </v>
   <v>       0.24995000       0.67323000       0.31286000 </v>
   <v>       0.75005000       0.32677000       0.06286000 </v>
   <v>       0.50005000       0.67323000       0.06286000 </v>
   <v>       0.99995000       0.32677000       0.31286000 </v>
   <v>       0.74995000       0.67323000       0.31286000 </v>
   <v>       0.25005000       0.32677000       0.56286000 </v>
   <v>       0.00005000       0.67323000       0.56286000 </v>
   <v>       0.49995000       0.32677000       0.81286000 </v>
   <v>       0.24995000       0.67323000       0.81286000 </v>
   <v>       0.75005000       0.32677000       0.56286000 </v>
   <v>       0.50005000       0.67323000       0.56286000 </v>
   <v>       0.99995000       0.32677000       0.81286000 </v>
   <v>       0.74995000       0.67323000       0.81286000 </v>
   <v>       0.49987000       0.07798000       0.06246000 </v>
   <v>       0.24987000       0.92202000       0.06246000 </v>
   <v>       0.25013000       0.07798000       0.31246000 </v>
   <v>       0.00013000       0.92202000       0.31246000 </v>
   <v>       0.99987000       0.07798000       0.06246000 </v>
   <v>       0.74987000       0.92202000       0.06246000 </v>
   <v>       0.75013000       0.07798000       0.31246000 </v>
   <v>       0.50013000       0.92202000       0.31246000 </v>
   <v>       0.49987000       0.07798000       0.56246000 </v>
   <v>       0.24987000       0.92202000       0.56246000 </v>
   <v>       0.25013000       0.07798000       0.81246000 </v>
   <v>       0.00013000       0.92202000       0.81246000 </v>
   <v>       0.99987000       0.07798000       0.56246000 </v>
   <v>       0.74987000       0.92202000       0.56246000 </v>
   <v>       0.75013000       0.07798000       0.81246000 </v>
   <v>       0.50013000       0.92202000       0.81246000 </v>
  </varray>
 </structure>
 <calculation>
  <scstep>
   <time name="dav">   61.15   61.34</time>
   <time name="total">   61.23   61.42</time>
   <energy>
    <i name="alphaZ">   1047.62774490 </i>
    <i name="ewald"> -29931.69569110 </i>
    <i name="hartreedc"> -12715.87155437 </i>
    <i name="XCdc">   1099.57826996 </i>
    <i name="pawpsdc">  36446.83583027 </i>
    <i name="pawaedc"> -35618.96860492 </i>
    <i name="eentropy">      0.00000000 </i>
    <i name="bandstr">   1948.31567075 </i>
    <i name="atom">  43261.00331033 </i>
    <i name="e_fr_energy">   5536.82497583 </i>
    <i name="e_wo_entrp">   5536.82497583 </i>
    <i name="e_0_energy">   5536.82497583 </i>
   </energy>
  </scstep>
  <scstep>
   <time name="dav">   61.93   62.04</time>
   <time name="total">   61.93   62.05</time>
   <energy>
    <i name="e_fr_energy">    719.60218501 </i>
    <i name="e_wo_entrp">    719.60218501 </i>
    <i name="e_0_energy">    719.60218501 </i>
   </energy>
  </scstep>
  <scstep>
   <time name="dav">   70.77   71.24</time>
   <time name="total">   70.77   71.25</time>
   <energy>
    <i name="e_fr_energy">   -244.15788020 </i>
    <i name="e_wo_entrp">   -244.15788020 </i>
    <i name="e_0_energy">   -244.15788020 </i>
   </energy>
  </scstep>
  <scstep>
   <time name="dav">   73.48   73.84</time>
   <time name="total">   73.48   73.84</time>
   <energy>
    <i name="e_fr_energy">   -325.55171572 </i>
    <i name="e_wo_entrp">   -325.55171572 </i>
    <i name="e_0_energy">   -325.55171572 </i>
   </energy>
  </scstep>
  <scstep>
   <time name="dav">   88.75   89.20</time>
   <time name="total">   89.46   89.91</time>
   <energy>
    <i name="e_fr_energy">   -330.53028471 </i>
    <i name="e_wo_entrp">   -330.53028471 </i>
    <i name="e_0_energy">   -330.53028471 </i>
   </energy>
  </scstep>
  <scstep>
   <time name="dav">   92.00   92.27</time>
   <time name="total">   92.78   93.08</time>
   <energy>
    <i name="e_fr_energy">   -278.48514951 </i>
    <i name="e_wo_entrp">   -278.48514951 </i>
    <i name="e_0_energy">   -278.48514951 </i>
   </energy>
  </scstep>
  <scstep>
   <time name="dav">   65.95   66.17</time>
   <time name="total">   66.72   66.95</time>
   <energy>
    <i name="e_fr_energy">   -280.04891669 </i>
    <i name="e_wo_entrp">   -280.04891669 </i>
    <i name="e_0_energy">   -280.04891669 </i>
   </energy>
  </scstep>
  <scstep>
   <time name="dav">   77.98   78.10</time>
   <time name="total">   78.77   78.89</time>
   <energy>
    <i name="e_fr_energy">   -279.24908887 </i>
    <i name="e_wo_entrp">   -279.24908887 </i>
    <i name="e_0_energy">   -279.24908887 </i>
   </energy>
  </scstep>
  <scstep>
   <time name="dav">   73.32   73.48</time>
   <time name="total">   74.11   74.28</time>
   <energy>
    <i name="e_fr_energy">   -278.85125367 </i>
    <i name="e_wo_entrp">   -278.85125367 </i>
    <i name="e_0_energy">   -278.85125367 </i>
   </energy>
  </scstep>
  <scstep>
   <time name="dav">   69.87   69.98</time>
   <time name="total">   70.65   70.76</time>
   <energy>
    <i name="e_fr_energy">   -278.88157987 </i>
    <i name="e_wo_entrp">   -278.88157987 </i>
    <i name="e_0_energy">   -278.88157987 </i>
   </energy>
  </scstep>
  <scstep>
   <time name="dav">   78.30   78.55</time>
   <time name="total">   79.09   79.34</time>
   <energy>
    <i name="e_fr_energy">   -278.88392028 </i>
    <i name="e_wo_entrp">   -278.88392028 </i>
    <i name="e_0_energy">   -278.88392028 </i>
   </energy>
  </scstep>
  <scstep>
   <time name="dav">   83.07   83.19</time>
   <time name="total">   83.84   83.98</time>
   <energy>
    <i name="e_fr_energy">   -278.88678374 </i>
    <i name="e_wo_entrp">   -278.88678374 </i>
    <i name="e_0_energy">   -278.88678374 </i>
   </energy>
  </scstep>
  <scstep>
   <time name="dav">   72.86   72.91</time>
   <time name="total">   73.58   73.73</time>
   <energy>
    <i name="e_fr_energy">   -278.88808352 </i>
    <i name="e_wo_entrp">   -278.88808352 </i>
    <i name="e_0_energy">   -278.88808352 </i>
   </energy>
  </scstep>
  <scstep>
   <time name="dav">   71.33   71.53</time>
   <time name="total">   72.11   72.31</time>
   <energy>
    <i name="e_fr_energy">   -278.88812370 </i>
    <i name="e_wo_entrp">   -278.88812370 </i>
    <i name="e_0_energy">   -278.88812370 </i>
   </energy>
  </scstep>
  <scstep>
   <time name="dav">   67.19   67.45</time>
   <time name="total">   67.97   68.23</time>
   <energy>
    <i name="e_fr_energy">   -278.88825781 </i>
    <i name="e_wo_entrp">   -278.88825781 </i>
    <i name="e_0_energy">   -278.88825781 </i>
   </energy>
  </scstep>
  <scstep>
   <time name="dav">   79.61   80.43</time>
   <time name="total">   80.39   81.22</time>
   <energy>
    <i name="e_fr_energy">   -278.88826247 </i>
    <i name="e_wo_entrp">   -278.88826247 </i>
    <i name="e_0_energy">   -278.88826247 </i>
   </energy>
  </scstep>
  <scstep>
   <time name="dav">   66.77   67.63</time>
   <time name="total">   67.55   68.41</time>
   <energy>
    <i name="e_fr_energy">   -278.88826632 </i>
    <i name="e_wo_entrp">   -278.88826632 </i>
    <i name="e_0_energy">   -278.88826632 </i>
   </energy>
  </scstep>
  <scstep>
   <time name="dav">   67.93   69.21</time>
   <time name="total">   68.00   69.28</time>
   <energy>
    <i name="alphaZ">   1047.62774490 </i>
    <i name="ewald"> -29931.69569110 </i>
    <i name="hartreedc"> -12946.22556916 </i>
    <i name="XCdc">   1125.04043273 </i>
    <i name="pawpsdc">  43455.51587983 </i>
    <i name="pawaedc"> -42599.60162556 </i>
    <i name="eentropy">      0.00000000 </i>
    <i name="bandstr">  -3690.55274874 </i>
    <i name="atom">  43261.00331033 </i>
    <i name="e_fr_energy">   -278.88826677 </i>
    <i name="e_wo_entrp">   -278.88826677 </i>
    <i name="e_0_energy">   -278.88826677 </i>
   </energy>
  </scstep>
  <structure>
   <crystal>
    <varray name="basis" >
     <v>      11.17850000       0.00000000       0.00000000 </v>
     <v>       0.00000000       9.57460000       0.00000000 </v>
     <v>       0.00000000       0.00000000      11.18240000 </v>
    </varray>
    <i name="volume">   1196.84853820 </i>
    <varray name="rec_basis" >
     <v>       0.08945744       0.00000000       0.00000000 </v>
     <v>       0.00000000       0.10444301       0.00000000 </v>
     <v>       0.00000000       0.00000000       0.08942624 </v>
    </varray>
   </crystal>
   <varray name="positions" >
    <v>       0.62539000       0.99984000       0.43687000 </v>
    <v>       0.87539000       0.00017000       0.93687000 </v>
    <v>       0.37461000       0.00017000       0.18687000 </v>
    <v>       0.87539000       0.00017000       0.43687000 </v>
    <v>       0.87461000       0.00017000       0.18687000 </v>
    <v>       0.12461000       0.99984000       0.68687000 </v>
    <v>       0.37461000       0.00017000       0.68687000 </v>
    <v>       0.62539000       0.99984000       0.93687000 </v>
    <v>       0.87461000       0.00017000       0.68687000 </v>
    <v>       0.00013000       0.29519000       0.06281000 </v>
    <v>       0.25013000       0.70481000       0.06281000 </v>
    <v>       0.24987000       0.29519000       0.31282000 </v>
    <v>       0.49987000       0.70481000       0.31282000 </v>
    <v>       0.50013000       0.29519000       0.06281000 </v>
    <v>       0.75013000       0.70481000       0.06281000 </v>
    <v>       0.74987000       0.29519000       0.31282000 </v>
    <v>       0.99987000       0.70481000       0.31282000 </v>
    <v>       0.00013000       0.29519000       0.56281000 </v>
    <v>       0.25013000       0.70481000       0.56281000 </v>
    <v>       0.24987000       0.29519000       0.81282000 </v>
    <v>       0.49987000       0.70481000       0.81282000 </v>
    <v>       0.50013000       0.29519000       0.56281000 </v>
    <v>       0.75013000       0.70481000       0.56281000 </v>
    <v>       0.74987000       0.29519000       0.81282000 </v>
    <v>       0.99987000       0.70481000       0.81282000 </v>
    <v>       0.25005000       0.32677000       0.06286000 </v>
    <v>       0.00005000       0.67323000       0.06286000 </v>
    <v>       0.49995000       0.32677000       0.31286000 </v>
    <v>       0.24995000       0.67323000       0.31286000 </v>
    <v>       0.75005000       0.32677000       0.06286000 </v>
    <v>       0.50005000       0.67323000       0.06286000 </v>
    <v>       0.99995000       0.32677000       0.31286000 </v>
    <v>       0.74995000       0.67323000       0.31286000 </v>
    <v>       0.25005000       0.32677000       0.56286000 </v>
    <v>       0.00005000       0.67323000       0.56286000 </v>
    <v>       0.49995000       0.32677000       0.81286000 </v>
    <v>       0.24995000       0.67323000       0.81286000 </v>
    <v>       0.75005000       0.32677000       0.56286000 </v>
    <v>       0.50005000       0.67323000       0.56286000 </v>
    <v>       0.99995000       0.32677000       0.81286000 </v>
    <v>       0.74995000       0.67323000       0.81286000 </v>
    <v>       0.49987000       0.07798000       0.06246000 </v>
    <v>       0.24987000       0.92202000       0.06246000 </v>
    <v>       0.25013000       0.07798000       0.31246000 </v>
    <v>       0.00013000       0.92202000       0.31246000 </v>
    <v>       0.99987000       0.07798000       0.06246000 </v>
    <v>       0.74987000       0.92202000       0.06246000 </v>
    <v>       0.75013000       0.07798000       0.31246000 </v>
    <v>       0.50013000       0.92202000       0.31246000 </v>
    <v>       0.49987000       0.07798000       0.56246000 </v>
    <v>       0.24987000       0.92202000       0.56246000 </v>
    <v>       0.25013000       0.07798000       0.81246000 </v>
    <v>       0.00013000       0.92202000       0.81246000 </v>
    <v>       0.99987000       0.07798000       0.56246000 </v>
    <v>       0.74987000       0.92202000       0.56246000 </v>
    <v>       0.75013000       0.07798000       0.81246000 </v>
    <v>       0.50013000       0.92202000       0.81246000 </v>
   </varray>
  </structure>
  <varray name="forces" >
   <v>      -1.11643570       0.00479497      -0.07784320 </v>
   <v>       0.74507270       0.12442789       0.34096334 </v>
   <v>      -0.56769285      -0.11951728       0.20014408 </v>
   <v>       0.62478359      -0.22048697      -0.54836618 </v>
   <v>       0.67601922       0.10917959      -0.76055876 </v>
   <v>       0.91691021      -0.10302604       0.22507026 </v>
   <v>       1.29514561       0.11648702      -0.13409066 </v>
   <v>      -1.26358353      -0.00070173       0.18344136 </v>
   <v>      -1.30119687      -0.10772754       0.84328067 </v>
   <v>       0.72136851      -0.88648697       0.12157808 </v>
   <v>      -0.08322425       1.93768586       0.06401873 </v>
   <v>       0.04727791      -1.94493717      -0.06696203 </v>
   <v>      -0.35983636       1.06013410      -0.03638241 </v>
   <v>      -0.44245217      -0.09714318       0.21526945 </v>
   <v>      -0.25231461      -1.05462411       0.27104813 </v>
   <v>      -0.52804945       1.12965597      -0.28579822 </v>
   <v>       0.86275773      -0.12906452      -0.32448150 </v>
   <v>       0.58002538       2.09236300      -0.43421356 </v>
   <v>       0.31269616      -0.12107467      -0.68075210 </v>
   <v>       0.19943440       0.07209378       0.65565990 </v>
   <v>      -0.32110794       0.06698384       0.10132775 </v>
   <v>      -0.26057715      -0.99462804      -0.28701762 </v>
   <v>      -0.63983753      -1.15058335      -0.02845812 </v>
   <v>      -0.33512754       1.08454966       0.02516214 </v>
   <v>       0.48196982      -1.13664126       0.61689936 </v>
   <v>       0.03944452       0.21412743      -0.25956992 </v>
   <v>      -0.48174417      -0.10015508      -0.11914383 </v>
   <v>       0.44168184       0.21121107      -0.04424155 </v>
   <v>      -0.16402985      -0.22732052       0.26056904 </v>
   <v>      -0.00416443       0.08583687      -0.11446512 </v>
   <v>       0.47326908      -0.16933007      -0.19849555 </v>
   <v>      -0.51811566       0.04990951       0.33140165 </v>
   <v>       0.25723522      -0.06670151       0.12952259 </v>
   <v>      -0.37362275       0.11575655       0.36055491 </v>
   <v>      -0.27412439       0.04838711       0.20341939 </v>
   <v>       0.26092283       0.10408717       0.02730729 </v>
   <v>      -0.21650724      -0.11343329      -0.36761984 </v>
   <v>       0.41457594      -0.05038755       0.06626564 </v>
   <v>       0.20768624      -0.13910939       0.20041681 </v>
   <v>      -0.23681314      -0.00712965      -0.40348288 </v>
   <v>       0.18795962       0.01800245      -0.07834932 </v>
   <v>       0.42887662       0.36499549      -0.25607594 </v>
   <v>       0.94532894      -1.71413947       0.79145780 </v>
   <v>       0.85134463       1.73515041      -0.79527529 </v>
   <v>      -2.34973395       0.23568617       0.25039671 </v>
   <v>      -1.91381974       0.61274982       0.33494065 </v>
   <v>       0.59691182       0.71540475      -0.75452418 </v>
   <v>       1.59453052      -0.89430022       0.71028394 </v>
   <v>      -0.13606663      -1.05593830      -0.39157938 </v>
   <v>      -0.28939568       0.93660425       0.56179192 </v>
   <v>      -0.29470858       0.11462519       2.15944470 </v>
   <v>      -0.20452594      -0.11112607      -2.18724432 </v>
   <v>      -0.84394201       1.03240874      -1.81681100 </v>
   <v>      -1.26765538      -1.61832808       1.15643928 </v>
   <v>       1.83979974       1.06368294      -0.50316380 </v>
   <v>       0.80696575      -0.84982263       0.50774436 </v>
   <v>       0.23041090      -0.27311696       0.03914637 </v>
  </varray>
  <varray name="stress" >
   <v>      -4.01786114       0.05510540       0.66886183 </v>
   <v>       0.05510534     -12.16019072      -0.24085986 </v>
   <v>       0.66886186      -0.24085982      -4.28268485 </v>
  </varray>
  <energy>
   <i name="e_fr_energy">   -289.70962678 </i>
   <i name="e_wo_entrp">   -289.70962678 </i>
   <i name="e_0_energy">      0.00000000 </i>
  </energy>
  <time name="totalsc"> 1453.16 1460.58</time>
 </calculation>
 <calculation>
  <scstep>
   <time name="dav">   63.32   63.46</time>
   <time name="total">   64.09   64.24</time>
   <energy>
    <i name="alphaZ">   1061.30715978 </i>
    <i name="ewald"> -30025.12809469 </i>
    <i name="hartreedc"> -13019.00232448 </i>
    <i name="XCdc">   1132.63660053 </i>
    <i name="pawpsdc">  43454.83087783 </i>
    <i name="pawaedc"> -42598.91616379 </i>
    <i name="eentropy">      0.00000000 </i>
    <i name="bandstr">  -3544.40411676 </i>
    <i name="atom">  43261.00331033 </i>
    <i name="e_fr_energy">   -277.67275124 </i>
    <i name="e_wo_entrp">   -277.67275124 </i>
    <i name="e_0_energy">   -277.67275124 </i>
   </energy>
  </scstep>
  <scstep>
   <time name="dav">   70.89   71.13</time>
   <time name="total">   71.66   71.91</time>
   <energy>
    <i name="e_fr_energy">   -281.47927619 </i>
    <i name="e_wo_entrp">   -281.47927619 </i>
    <i name="e_0_energy">   -281.47927619 </i>
   </energy>
  </scstep>
  <scstep>
   <time name="dav">   87.77   88.52</time>
   <time name="total">   88.55   89.30</time>
   <energy>
    <i name="e_fr_energy">   -281.23265665 </i>
    <i name="e_wo_entrp">   -281.23265665 </i>
    <i name="e_0_energy">   -281.23265665 </i>
   </energy>
  </scstep>
  <scstep>
   <time name="dav">   74.87   75.17</time>
   <time name="total">   75.64   75.95</time>
   <energy>
    <i name="e_fr_energy">   -281.07880802 </i>
    <i name="e_wo_entrp">   -281.07880802 </i>
    <i name="e_0_energy">   -281.07880802 </i>
   </energy>
  </scstep>
  <scstep>
   <time name="dav">   75.78   75.91</time>
   <time name="total">   76.55   76.69</time>
   <energy>
    <i name="e_fr_energy">   -281.06461919 </i>
    <i name="e_wo_entrp">   -281.06461919 </i>
    <i name="e_0_energy">   -281.06461919 </i>
   </energy>
  </scstep>
  <scstep>
   <time name="dav">   74.25   74.52</time>
   <time name="total">   75.03   75.30</time>
   <energy>
    <i name="e_fr_energy">   -281.06222947 </i>
    <i name="e_wo_entrp">   -281.06222947 </i>
    <i name="e_0_energy">   -281.06222947 </i>
   </energy>
  </scstep>
  <scstep>
   <time name="dav">   71.49   72.26</time>
   <time name="total">   72.27   73.04</time>
   <energy>
    <i name="e_fr_energy">   -281.06115653 </i>
    <i name="e_wo_entrp">   -281.06115653 </i>
    <i name="e_0_energy">   -281.06115653 </i>
   </energy>
  </scstep>
  <scstep>
   <time name="dav">   93.93   94.72</time>
   <time name="total">   94.70   95.51</time>
   <energy>
    <i name="e_fr_energy">   -281.06096918 </i>
    <i name="e_wo_entrp">   -281.06096918 </i>
    <i name="e_0_energy">   -281.06096918 </i>
   </energy>
  </scstep>
  <scstep>
   <time name="dav">   65.64   66.46</time>
   <time name="total">   66.44   67.27</time>
   <energy>
    <i name="e_fr_energy">   -281.06098784 </i>
    <i name="e_wo_entrp">   -281.06098784 </i>
    <i name="e_0_energy">   -281.06098784 </i>
   </energy>
  </scstep>
  <scstep>
   <time name="dav">   81.78   81.91</time>
   <time name="total">   82.57   82.70</time>
   <energy>
    <i name="e_fr_energy">   -281.06098951 </i>
    <i name="e_wo_entrp">   -281.06098951 </i>
    <i name="e_0_energy">   -281.06098951 </i>
   </energy>
  </scstep>
  <scstep>
   <time name="dav">   68.63   69.15</time>
   <time name="total">   69.40   69.93</time>
   <energy>
    <i name="e_fr_energy">   -281.06098973 </i>
    <i name="e_wo_entrp">   -281.06098973 </i>
    <i name="e_0_energy">   -281.06098973 </i>
   </energy>
  </scstep>
  <scstep>
   <time name="dav">   63.92   64.39</time>
   <time name="total">   63.99   64.47</time>
   <energy>
    <i name="alphaZ">   1061.30715978 </i>
    <i name="ewald"> -30025.12809469 </i>
    <i name="hartreedc"> -12911.32862372 </i>
    <i name="XCdc">   1128.21791607 </i>
    <i name="pawpsdc">  43815.90944789 </i>
    <i name="pawaedc"> -42962.92308042 </i>
    <i name="eentropy">      0.00000000 </i>
    <i name="bandstr">  -3648.11902457 </i>
    <i name="atom">  43261.00331033 </i>
    <i name="e_fr_energy">   -281.06098932 </i>
    <i name="e_wo_entrp">   -281.06098932 </i>
    <i name="e_0_energy">   -281.06098932 </i>
   </energy>
  </scstep>
  <structure>
   <crystal>
    <varray name="basis" >
     <v>      11.15010359       0.00038946       0.00472721 </v>
     <v>       0.00033358       9.50098845      -0.00145804 </v>
     <v>       0.00472886      -0.00170288      11.15212138 </v>
    </varray>
    <i name="volume">   1181.42210151 </i>
    <varray name="rec_basis" >
     <v>       0.08968528      -0.00000315      -0.00003803 </v>
     <v>      -0.00000368       0.10525221       0.00001607 </v>
     <v>      -0.00003802       0.00001376       0.08966906 </v>
    </varray>
   </crystal>
   <varray name="positions" >
    <v>       0.62057184       0.99986416       0.43653417 </v>
    <v>       0.87860548       0.00079694       0.93834097 </v>
    <v>       0.37216003      -0.00043220       0.18773345 </v>
    <v>       0.87808636      -0.00094095       0.43450426 </v>
    <v>       0.87752747       0.00072011       0.18358883 </v>
    <v>       0.12856708       0.99932089       0.68784099 </v>
    <v>       0.38019941       0.00075693       0.68629151 </v>
    <v>       0.61993680       0.99983646       0.93766140 </v>
    <v>       0.86899447      -0.00037280       0.69050805 </v>
    <v>       0.00324318       0.29072334       0.06333451 </v>
    <v>       0.24977083       0.71457324       0.06308619 </v>
    <v>       0.25007404       0.28539022       0.31253112 </v>
    <v>       0.49831707       0.71015160       0.31266304 </v>
    <v>       0.49822052       0.29470053       0.06373871 </v>
    <v>       0.74904109       0.69949616       0.06397934 </v>
    <v>       0.74759112       0.30088189       0.31158702 </v>
    <v>       0.00359337       0.70415969       0.31142014 </v>
    <v>       0.00263319       0.30573260       0.56093673 </v>
    <v>       0.25147949       0.70419995       0.55987313 </v>
    <v>       0.25073069       0.29555325       0.81564862 </v>
    <v>       0.49848421       0.70514751       0.81325714 </v>
    <v>       0.49900544       0.29017846       0.56157176 </v>
    <v>       0.74736868       0.69901266       0.56268723 </v>
    <v>       0.74842370       0.30065462       0.81292855 </v>
    <v>       0.00195002       0.69908291       0.81548140 </v>
    <v>       0.25022023       0.32784890       0.06174017 </v>
    <v>      -0.00202905       0.67272536       0.06234599 </v>
    <v>       0.50185615       0.32783421       0.31266913 </v>
    <v>       0.24924210       0.67208462       0.31398414 </v>
    <v>       0.75003203       0.32720250       0.06236618 </v>
    <v>       0.50209247       0.67237681       0.06200366 </v>
    <v>       0.99771399       0.32702147       0.31428972 </v>
    <v>       0.75106014       0.67289392       0.31341878 </v>
    <v>       0.24843757       0.32735325       0.56441549 </v>
    <v>      -0.00113303       0.67347380       0.56373758 </v>
    <v>       0.50107606       0.32729445       0.81297781 </v>
    <v>       0.24901563       0.67265845       0.81127403 </v>
    <v>       0.75183917       0.32651612       0.56314588 </v>
    <v>       0.50094630       0.67252908       0.56372463 </v>
    <v>       0.99892799       0.32673408       0.81111931 </v>
    <v>       0.75076117       0.67332071       0.81252199 </v>
    <v>       0.50172089       0.07981907       0.06135525 </v>
    <v>       0.25394972       0.91338312       0.06587447 </v>
    <v>       0.25380412       0.08672274       0.30902906 </v>
    <v>      -0.01001066       0.92320753       0.31354025 </v>
    <v>       0.99161060       0.08106741       0.06390499 </v>
    <v>       0.75244607       0.92562464       0.05920486 </v>
    <v>       0.75701146       0.07347397       0.31552428 </v>
    <v>       0.49954278       0.91669954       0.31077066 </v>
    <v>       0.49862107       0.08269918       0.56488366 </v>
    <v>       0.24859814       0.92259755       0.57177619 </v>
    <v>       0.24924733       0.07742008       0.80302388 </v>
    <v>      -0.00351217       0.92722190       0.80462199 </v>
    <v>       0.99439922       0.06982588       0.56744906 </v>
    <v>       0.75780996       0.92737948       0.56028927 </v>
    <v>       0.75361259       0.07369808       0.81465049 </v>
    <v>       0.50112438       0.92064387       0.81262888 </v>
   </varray>
  </structure>
  <varray name="forces" >
   <v>      -0.55476699       0.01182501      -0.05875195 </v>
   <v>       0.47493254       0.05817812       0.08134743 </v>
   <v>      -0.09935167      -0.02908703       0.04303559 </v>
   <v>       0.39285812       0.04242518       0.35692338 </v>
   <v>      -0.07956868      -0.04354194      -0.21769222 </v>
   <v>      -0.35228033      -0.00740221       0.00279474 </v>
   <v>       0.76050180      -0.00579522       0.03310227 </v>
   <v>      -0.35952313      -0.00751537       0.07747075 </v>
   <v>      -0.67206590      -0.02865918       0.20950788 </v>
   <v>       0.38101538       0.67184395      -0.00764867 </v>
   <v>      -0.18113156      -2.57460218      -0.17900414 </v>
   <v>      -0.17264809       2.62248658       0.19410714 </v>
   <v>      -0.04243483      -1.34227954      -0.01782330 </v>
   <v>      -0.11675726       0.62244435       0.09092331 </v>
   <v>      -0.15253751       0.00467288       0.14094172 </v>
   <v>      -0.18392086      -0.14640552      -0.12225067 </v>
   <v>       0.37048963       0.02310245      -0.04479755 </v>
   <v>       0.20081715      -0.13393262      -0.14091500 </v>
   <v>       0.01771079      -0.06407891      -0.31431484 </v>
   <v>       0.02775293       0.07250052       0.29685693 </v>
   <v>      -0.13237182      -0.58361846       0.09214424 </v>
   <v>      -0.06152120       1.22200005      -0.17712476 </v>
   <v>      -0.14483334       0.22634450      -0.02681259 </v>
   <v>      -0.07688039      -0.03278863      -0.01685090 </v>
   <v>       0.20154739       0.22281261       0.14631088 </v>
   <v>       0.04875097       0.09263196      -0.10279197 </v>
   <v>      -0.24802209      -0.07036669      -0.01344580 </v>
   <v>       0.20497918       0.12306626      -0.02908932 </v>
   <v>      -0.06662711      -0.11352526       0.09648744 </v>
   <v>      -0.00651570       0.19191886      -0.06708022 </v>
   <v>       0.24069112      -0.12702604      -0.12670427 </v>
   <v>      -0.25694793       0.11911885       0.10670095 </v>
   <v>       0.11689165      -0.20469666       0.07992357 </v>
   <v>      -0.15917756       0.16988469       0.20263996 </v>
   <v>      -0.09047135      -0.22812396       0.05795266 </v>
   <v>       0.11519742       0.06891867       0.01925589 </v>
   <v>      -0.11587197      -0.15217901      -0.19977994 </v>
   <v>       0.15146599       0.13560999       0.03449122 </v>
   <v>       0.06824657      -0.05519000       0.11155689 </v>
   <v>      -0.08028093       0.15897386      -0.14634230 </v>
   <v>       0.06817471      -0.11473155      -0.04230984 </v>
   <v>      -0.04583716      -0.34237264       0.05489132 </v>
   <v>       0.88319335       2.75495679       0.80638307 </v>
   <v>       0.84452368      -2.79691474      -0.81625997 </v>
   <v>      -1.14320109      -0.33522993      -0.26443886 </v>
   <v>      -1.13502631      -0.64865223       0.08150573 </v>
   <v>       0.37072631      -0.34608526      -0.55684909 </v>
   <v>       0.83936404       0.53658360       0.24314389 </v>
   <v>      -0.32322730       1.33711516      -0.37978870 </v>
   <v>      -0.18461692      -1.13016575       0.30623968 </v>
   <v>       0.24208855      -0.19188963       1.28515626 </v>
   <v>       0.24563298       0.14672567      -1.30159823 </v>
   <v>      -0.38289356      -0.58597054      -0.81750639 </v>
   <v>      -0.58527100       0.71272842       0.70207598 </v>
   <v>       0.74237242      -0.62605254      -0.45805074 </v>
   <v>       0.13376629       0.44354304       0.71116750 </v>
   <v>       0.06289059       0.27646720      -0.01901601 </v>
  </varray>
  <varray name="stress" >
   <v>       8.87147218       0.04882850      -1.06454356 </v>
   <v>       0.04882864      14.21134564       1.31714927 </v>
   <v>      -1.06454328       1.31714938       9.70619066 </v>
  </varray>
  <energy>
   <i name="e_fr_energy">   -291.99089539 </i>
   <i name="e_wo_entrp">   -291.99089539 </i>
   <i name="e_0_energy">      0.00000000 </i>
  </energy>
  <time name="totalsc"> 1010.32 1015.89</time>
 </calculation>
 <calculation>
  <scstep>
   <time name="dav">   69.47   69.55</time>
   <time name="total">   70.29   70.38</time>
   <energy>
    <i name="alphaZ">   1060.65610132 </i>
    <i name="ewald"> -30022.01890121 </i>
    <i name="hartreedc"> -12906.76321857 </i>
    <i name="XCdc">   1127.84040261 </i>
    <i name="pawpsdc">  43816.14850025 </i>
    <i name="pawaedc"> -42963.16536154 </i>
    <i name="eentropy">      0.00000000 </i>
    <i name="bandstr">  -3654.76845033 </i>
    <i name="atom">  43261.00331033 </i>
    <i name="e_fr_energy">   -281.06761713 </i>
    <i name="e_wo_entrp">   -281.06761713 </i>
    <i name="e_0_energy">   -281.06761713 </i>
   </energy>
  </scstep>
  <scstep>
   <time name="dav">   70.74   70.78</time>
   <time name="total">   71.52   71.56</time>
   <energy>
    <i name="e_fr_energy">   -281.07471374 </i>
    <i name="e_wo_entrp">   -281.07471374 </i>
    <i name="e_0_energy">   -281.07471374 </i>
   </energy>
  </scstep>
  <scstep>
   <time name="dav">   81.07   81.11</time>
   <time name="total">   81.87   81.91</time>
   <energy>
    <i name="e_fr_energy">   -281.07420764 </i>
    <i name="e_wo_entrp">   -281.07420764 </i>
    <i name="e_0_energy">   -281.07420764 </i>
   </energy>
  </scstep>
  <scstep>
   <time name="dav">   73.24   73.31</time>
   <time name="total">   74.03   74.09</time>
   <energy>
    <i name="e_fr_energy">   -281.07384420 </i>
    <i name="e_wo_entrp">   -281.07384420 </i>
    <i name="e_0_energy">   -281.07384420 </i>
   </energy>
  </scstep>
  <scstep>
   <time name="dav">   75.66   75.79</time>
   <time name="total">   76.44   76.57</time>
   <energy>
    <i name="e_fr_energy">   -281.07380778 </i>
    <i name="e_wo_entrp">   -281.07380778 </i>
    <i name="e_0_energy">   -281.07380778 </i>
   </energy>
  </scstep>
  <scstep>
   <time name="dav">   72.55   73.17</time>
   <time name="total">   73.33   73.95</time>
   <energy>
    <i name="e_fr_energy">   -281.07380265 </i>
    <i name="e_wo_entrp">   -281.07380265 </i>
    <i name="e_0_energy">   -281.07380265 </i>
   </energy>
  </scstep>
  <scstep>
   <time name="dav">   70.42   70.51</time>
   <time name="total">   71.20   71.29</time>
   <energy>
    <i name="e_fr_energy">   -281.07379619 </i>
    <i name="e_wo_entrp">   -281.07379619 </i>
    <i name="e_0_energy">   -281.07379619 </i>
   </energy>
  </scstep>
  <scstep>
   <time name="dav">   62.88   63.13</time>
   <time name="total">   63.74   64.00</time>
   <energy>
    <i name="e_fr_energy">   -281.07379385 </i>
    <i name="e_wo_entrp">   -281.07379385 </i>
    <i name="e_0_energy">   -281.07379385 </i>
   </energy>
  </scstep>
  <scstep>
   <time name="dav">   44.37   44.60</time>
   <time name="total">   44.44   44.67</time>
   <energy>
    <i name="alphaZ">   1060.65610132 </i>
    <i name="ewald"> -30022.01890121 </i>
    <i name="hartreedc"> -12911.94298924 </i>
    <i name="XCdc">   1128.05641090 </i>
    <i name="pawpsdc">  43794.09585852 </i>
    <i name="pawaedc"> -42940.89197188 </i>
    <i name="eentropy">      0.00000000 </i>
    <i name="bandstr">  -3650.03161256 </i>
    <i name="atom">  43261.00331033 </i>
    <i name="e_fr_energy">   -281.07379381 </i>
    <i name="e_wo_entrp">   -281.07379381 </i>
    <i name="e_0_energy">   -281.07379381 </i>
   </energy>
  </scstep>
  <structure>
   <crystal>
    <varray name="basis" >
     <v>      11.15144314       0.00037109       0.00450421 </v>
     <v>       0.00031784       9.50446093      -0.00138926 </v>
     <v>       0.00450578      -0.00162255      11.15354971 </v>
    </varray>
    <i name="volume">   1182.14728930 </i>
    <varray name="rec_basis" >
     <v>       0.08967451      -0.00000300      -0.00003623 </v>
     <v>      -0.00000351       0.10521375       0.00001531 </v>
     <v>      -0.00003621       0.00001311       0.08965757 </v>
    </varray>
   </crystal>
   <varray name="positions" >
    <v>       0.62079970       0.99986300       0.43654996 </v>
    <v>       0.87845344       0.00076713       0.93827145 </v>
    <v>       0.37227591      -0.00040359       0.18769257 </v>
    <v>       0.87795879      -0.00088811       0.43461622 </v>
    <v>       0.87738943       0.00069400       0.18374409 </v>
    <v>       0.12837995       0.99934557       0.68779514 </v>
    <v>       0.37993506       0.00072905       0.68631898 </v>
    <v>       0.62019471       0.99983662       0.93762385 </v>
    <v>       0.86926012      -0.00034703       0.69033585 </v>
    <v>       0.00309596       0.29093568       0.06330979 </v>
    <v>       0.24978784       0.71410911       0.06307306 </v>
    <v>       0.25006437       0.28585609       0.31254484 </v>
    <v>       0.49839051       0.70989767       0.31267040 </v>
    <v>       0.49831085       0.29472379       0.06369474 </v>
    <v>       0.74909261       0.69974876       0.06392404 </v>
    <v>       0.74769887       0.30061132       0.31164526 </v>
    <v>       0.00341725       0.70419063       0.31148643 </v>
    <v>       0.00251479       0.30523144       0.56102533 </v>
    <v>       0.25141561       0.70422898       0.56001208 </v>
    <v>       0.25069004       0.29553596       0.81551484 </v>
    <v>       0.49854975       0.70513145       0.81323644 </v>
    <v>       0.49905859       0.29041671       0.56163034 </v>
    <v>       0.74749926       0.69928825       0.56269302 </v>
    <v>       0.74849211       0.30039484       0.81292336 </v>
    <v>       0.00185169       0.69935515       0.81535559 </v>
    <v>       0.25021216       0.32779762       0.06179314 </v>
    <v>      -0.00193073       0.67274935       0.06237027 </v>
    <v>       0.50176600       0.32778362       0.31267819 </v>
    <v>       0.24927560       0.67213906       0.31393096 </v>
    <v>       0.75003287       0.32718194       0.06238953 </v>
    <v>       0.50199586       0.67241738       0.06204421 </v>
    <v>       0.99781976       0.32700950       0.31422205 </v>
    <v>       0.75100765       0.67290989       0.31339237 </v>
    <v>       0.24851386       0.32732551       0.56434188 </v>
    <v>      -0.00107706       0.67346220       0.56369605 </v>
    <v>       0.50102280       0.32726952       0.81297225 </v>
    <v>       0.24905978       0.67268564       0.81134903 </v>
    <v>       0.75175456       0.32652819       0.56313240 </v>
    <v>       0.50090393       0.67256240       0.56368375 </v>
    <v>       0.99897629       0.32673580       0.81120163 </v>
    <v>       0.75072280       0.67331640       0.81253799 </v>
    <v>       0.50163333       0.07973166       0.06140753 </v>
    <v>       0.25375684       0.91379369       0.06571310 </v>
    <v>       0.25363030       0.08630716       0.30919136 </v>
    <v>      -0.00953106       0.92315105       0.31348894 </v>
    <v>       0.99200124       0.08092061       0.06383645 </v>
    <v>       0.75232418       0.92545332       0.05935886 </v>
    <v>       0.75668607       0.07368817       0.31537950 </v>
    <v>       0.49957051       0.91695248       0.31085059 </v>
    <v>       0.49868019       0.08247482       0.56476896 </v>
    <v>       0.24865847       0.92257001       0.57133549 </v>
    <v>       0.24928889       0.07744678       0.80347020 </v>
    <v>      -0.00334007       0.92697467       0.80499263 </v>
    <v>       0.99465804       0.07021346       0.56721302 </v>
    <v>       0.75743442       0.92712473       0.56039208 </v>
    <v>       0.75344793       0.07390162       0.81454697 </v>
    <v>       0.50107735       0.92070929       0.81262092 </v>
   </varray>
  </structure>
  <varray name="forces" >
   <v>      -0.58115735       0.01132312      -0.05943928 </v>
   <v>       0.48763279       0.06192521       0.09517972 </v>
   <v>      -0.12315296      -0.03324528       0.05035020 </v>
   <v>       0.40690555       0.02591466       0.30432634 </v>
   <v>      -0.03711284      -0.03258796      -0.24811148 </v>
   <v>      -0.28292401      -0.01123080       0.01332722 </v>
   <v>       0.78739158       0.00155873       0.02343300 </v>
   <v>      -0.40357971      -0.00622012       0.08318979 </v>
   <v>      -0.70086485      -0.03186782       0.24246183 </v>
   <v>       0.39398180       0.58562279      -0.00109924 </v>
   <v>      -0.16844818      -2.25471491      -0.16134494 </v>
   <v>      -0.15502700       2.29744054       0.17488080 </v>
   <v>      -0.05731086      -1.19422515      -0.01977021 </v>
   <v>      -0.13225293       0.58487330       0.09671375 </v>
   <v>      -0.15845115      -0.03818195       0.14753748 </v>
   <v>      -0.20274974      -0.09608090      -0.13063819 </v>
   <v>       0.39634764       0.01438038      -0.05825204 </v>
   <v>       0.22043697      -0.06082962      -0.15585126 </v>
   <v>       0.03180901      -0.06831219      -0.33375161 </v>
   <v>       0.03593756       0.07408312       0.31567383 </v>
   <v>      -0.14102661      -0.55025825       0.09285220 </v>
   <v>      -0.07103568       1.08892294      -0.18052651 </v>
   <v>      -0.17005896       0.17368804      -0.02659274 </v>
   <v>      -0.09018097       0.01087660      -0.01472540 </v>
   <v>       0.21594176       0.17062962       0.16988447 </v>
   <v>       0.04784174       0.09898214      -0.11190857 </v>
   <v>      -0.25930007      -0.07223684      -0.01909300 </v>
   <v>       0.21798380       0.12793827      -0.02966090 </v>
   <v>      -0.07253144      -0.11945681       0.10597517 </v>
   <v>      -0.00628592       0.18696898      -0.06928303 </v>
   <v>       0.25295225      -0.12961798      -0.13046103 </v>
   <v>      -0.26950775       0.11649064       0.11838226 </v>
   <v>       0.12350951      -0.19855956       0.08233652 </v>
   <v>      -0.17064476       0.16771942       0.21006410 </v>
   <v>      -0.09933864      -0.21615152       0.06511961 </v>
   <v>       0.12253242       0.07069873       0.01968520 </v>
   <v>      -0.12113038      -0.15062638      -0.20764813 </v>
   <v>       0.16399511       0.12782565       0.03572279 </v>
   <v>       0.07556635      -0.05938815       0.11576717 </v>
   <v>      -0.08763098       0.15186266      -0.15885700 </v>
   <v>       0.07386341      -0.10900034      -0.04378954 </v>
   <v>      -0.02269145      -0.30686618       0.03913458 </v>
   <v>       0.87883458       2.43952851       0.80011679 </v>
   <v>       0.83875399      -2.47612727      -0.80945471 </v>
   <v>      -1.21116937      -0.29962382      -0.23165033 </v>
   <v>      -1.17405066      -0.58205618       0.09809560 </v>
   <v>       0.38263016      -0.30233907      -0.56688076 </v>
   <v>       0.88142166       0.47545233       0.26990845 </v>
   <v>      -0.31469044       1.19026512      -0.37927989 </v>
   <v>      -0.19092118      -1.00644849       0.31787953 </v>
   <v>       0.21051425      -0.17139725       1.33327216 </v>
   <v>       0.21787290       0.12794619      -1.35031056 </v>
   <v>      -0.40978542      -0.51859630      -0.87093667 </v>
   <v>      -0.62120547       0.63208451       0.72632179 </v>
   <v>       0.80058104      -0.55565820      -0.46043521 </v>
   <v>       0.17031893       0.38849899       0.69793944 </v>
   <v>       0.07066095       0.24840411      -0.01577955 </v>
  </varray>
  <varray name="stress" >
   <v>       8.12080607       0.03721612      -0.97171524 </v>
   <v>       0.03721604      12.08250556       1.19723805 </v>
   <v>      -0.97171523       1.19723814       8.89844669 </v>
  </varray>
  <energy>
   <i name="e_fr_energy">   -291.99831850 </i>
   <i name="e_wo_entrp">   -291.99831850 </i>
   <i name="e_0_energy">      0.00000000 </i>
  </energy>
  <time name="totalsc">  736.24  738.14</time>
 </calculation>
 <calculation>
  <scstep>
   <time name="dav">   69.58   69.69</time>
   <time name="total">   70.36   70.47</time>
   <energy>
    <i name="alphaZ">   1049.02614463 </i>
    <i name="ewald"> -30000.78396826 </i>
    <i name="hartreedc"> -12775.70792922 </i>
    <i name="XCdc">   1121.44520752 </i>
    <i name="pawpsdc">  43794.12173062 </i>
    <i name="pawaedc"> -42940.91803729 </i>
    <i name="eentropy">      0.00000000 </i>
    <i name="bandstr">  -3788.04824344 </i>
    <i name="atom">  43261.00331033 </i>
    <i name="e_fr_energy">   -279.86178511 </i>
    <i name="e_wo_entrp">   -279.86178511 </i>
    <i name="e_0_energy">   -279.86178511 </i>
   </energy>
  </scstep>
  <scstep>
   <time name="dav">   71.32   71.61</time>
   <time name="total">   72.18   72.47</time>
   <energy>
    <i name="e_fr_energy">   -282.40548477 </i>
    <i name="e_wo_entrp">   -282.40548477 </i>
    <i name="e_0_energy">   -282.40548477 </i>
   </energy>
  </scstep>
  <scstep>
   <time name="dav">   79.37   80.79</time>
   <time name="total">   80.16   81.67</time>
   <energy>
    <i name="e_fr_energy">   -282.27741234 </i>
    <i name="e_wo_entrp">   -282.27741234 </i>
    <i name="e_0_energy">   -282.27741234 </i>
   </energy>
  </scstep>
  <scstep>
   <time name="dav">   79.85   80.23</time>
   <time name="total">   80.63   81.02</time>
   <energy>
    <i name="e_fr_energy">   -282.22473185 </i>
    <i name="e_wo_entrp">   -282.22473185 </i>
    <i name="e_0_energy">   -282.22473185 </i>
   </energy>
  </scstep>
  <scstep>
   <time name="dav">   71.36   71.49</time>
   <time name="total">   72.14   72.28</time>
   <energy>
    <i name="e_fr_energy">   -282.19653827 </i>
    <i name="e_wo_entrp">   -282.19653827 </i>
    <i name="e_0_energy">   -282.19653827 </i>
   </energy>
  </scstep>
  <scstep>
   <time name="dav">   77.07   77.48</time>
   <time name="total">   77.84   78.27</time>
   <energy>
    <i name="e_fr_energy">   -282.19471972 </i>
    <i name="e_wo_entrp">   -282.19471972 </i>
    <i name="e_0_energy">   -282.19471972 </i>
   </energy>
  </scstep>
  <scstep>
   <time name="dav">   66.30   67.89</time>
   <time name="total">   67.00   68.72</time>
   <energy>
    <i name="e_fr_energy">   -282.19466744 </i>
    <i name="e_wo_entrp">   -282.19466744 </i>
    <i name="e_0_energy">   -282.19466744 </i>
   </energy>
  </scstep>
  <scstep>
   <time name="dav">   74.96   75.39</time>
   <time name="total">   75.73   76.17</time>
   <energy>
    <i name="e_fr_energy">   -282.19447645 </i>
    <i name="e_wo_entrp">   -282.19447645 </i>
    <i name="e_0_energy">   -282.19447645 </i>
   </energy>
  </scstep>
  <scstep>
   <time name="dav">   78.12   78.35</time>
   <time name="total">   78.90   79.13</time>
   <energy>
    <i name="e_fr_energy">   -282.19447536 </i>
    <i name="e_wo_entrp">   -282.19447536 </i>
    <i name="e_0_energy">   -282.19447536 </i>
   </energy>
  </scstep>
  <scstep>
   <time name="dav">   79.34   79.90</time>
   <time name="total">   80.14   80.71</time>
   <energy>
    <i name="e_fr_energy">   -282.19447684 </i>
    <i name="e_wo_entrp">   -282.19447684 </i>
    <i name="e_0_energy">   -282.19447684 </i>
   </energy>
  </scstep>
  <scstep>
   <time name="dav">   64.74   65.25</time>
   <time name="total">   65.53   66.03</time>
   <energy>
    <i name="e_fr_energy">   -282.19447993 </i>
    <i name="e_wo_entrp">   -282.19447993 </i>
    <i name="e_0_energy">   -282.19447993 </i>
   </energy>
  </scstep>
  <scstep>
   <time name="dav">   66.23   66.62</time>
   <time name="total">   67.00   67.41</time>
   <energy>
    <i name="e_fr_energy">   -282.19448202 </i>
    <i name="e_wo_entrp">   -282.19448202 </i>
    <i name="e_0_energy">   -282.19448202 </i>
   </energy>
  </scstep>
  <scstep>
   <time name="dav">   60.19   60.40</time>
   <time name="total">   61.05   61.27</time>
   <energy>
    <i name="e_fr_energy">   -282.19448336 </i>
    <i name="e_wo_entrp">   -282.19448336 </i>
    <i name="e_0_energy">   -282.19448336 </i>
   </energy>
  </scstep>
  <scstep>
   <time name="dav">   46.99   47.23</time>
   <time name="total">   47.06   47.30</time>
   <energy>
    <i name="alphaZ">   1049.02614463 </i>
    <i name="ewald"> -30000.78396826 </i>
    <i name="hartreedc"> -12875.67365251 </i>
    <i name="XCdc">   1126.03096680 </i>
    <i name="pawpsdc">  43403.40242431 </i>
    <i name="pawaedc"> -42545.00131953 </i>
    <i name="eentropy">      0.00000000 </i>
    <i name="bandstr">  -3700.19838919 </i>
    <i name="atom">  43261.00331033 </i>
    <i name="e_fr_energy">   -282.19448341 </i>
    <i name="e_wo_entrp">   -282.19448341 </i>
    <i name="e_0_energy">   -282.19448341 </i>
   </energy>
  </scstep>
  <structure>
   <crystal>
    <varray name="basis" >
     <v>      11.19222861       0.00084091       0.00035525 </v>
     <v>       0.00071638       9.53620747       0.00486574 </v>
     <v>       0.00035397       0.00571924      11.19870298 </v>
    </varray>
    <i name="volume">   1195.25308446 </i>
    <varray name="rec_basis" >
     <v>       0.08934771      -0.00000671      -0.00000282 </v>
     <v>      -0.00000788       0.10486352      -0.00005355 </v>
     <v>      -0.00000283      -0.00004556       0.08929608 </v>
    </varray>
   </crystal>
   <varray name="positions" >
    <v>       0.61571250       0.99993315       0.43611632 </v>
    <v>       0.88227570       0.00141813       0.93947075 </v>
    <v>       0.37042740      -0.00089673       0.18837444 </v>
    <v>       0.88115581      -0.00135968       0.43464346 </v>
    <v>       0.87880401       0.00082758       0.18091171 </v>
    <v>       0.12930012       0.99900799       0.68837526 </v>
    <v>       0.38632198       0.00105451       0.68610500 </v>
    <v>       0.61552573       0.99980374       0.93840878 </v>
    <v>       0.86322880      -0.00080052       0.69333823 </v>
    <v>       0.00646213       0.29146069       0.06358653 </v>
    <v>       0.24887279       0.70806081       0.06253027 </v>
    <v>       0.24950958       0.29209948       0.31313940 </v>
    <v>       0.49730807       0.70678651       0.31250113 </v>
    <v>       0.49671448       0.29739958       0.06461073 </v>
    <v>       0.74782627       0.69667882       0.06518666 </v>
    <v>       0.74560216       0.30321111       0.31042205 </v>
    <v>       0.00712299       0.70391038       0.31048069 </v>
    <v>       0.00480914       0.31063561       0.55934750 </v>
    <v>       0.25228052       0.70355453       0.55699849 </v>
    <v>       0.25130677       0.29610567       0.81839200 </v>
    <v>       0.49719830       0.70254778       0.81387014 </v>
    <v>       0.49814856       0.29317700       0.56019008 </v>
    <v>       0.74528232       0.69702147       0.56251351 </v>
    <v>       0.74732604       0.30340948       0.81291963 </v>
    <v>       0.00389737       0.69711127       0.81751705 </v>
    <v>       0.25050933       0.32887949       0.06071001 </v>
    <v>      -0.00416233       0.67211284       0.06201220 </v>
    <v>       0.50372758       0.32900320       0.31244758 </v>
    <v>       0.24858284       0.67091826       0.31499113 </v>
    <v>       0.74999644       0.32835617       0.06182665 </v>
    <v>       0.50418115       0.67130329       0.06102260 </v>
    <v>       0.99545912       0.32773173       0.31550102 </v>
    <v>       0.75213505       0.67172958       0.31404577 </v>
    <v>       0.24691278       0.32848506       0.56608121 </v>
    <v>      -0.00214067       0.67250764       0.56444844 </v>
    <v>       0.50215474       0.32790904       0.81311973 </v>
    <v>       0.24803782       0.67161847       0.80960469 </v>
    <v>       0.75342153       0.32703335       0.56343895 </v>
    <v>       0.50171048       0.67188428       0.56464545 </v>
    <v>       0.99805055       0.32747965       0.80958311 </v>
    <v>       0.75147670       0.67281740       0.81216780 </v>
    <v>       0.50253388       0.07918478       0.06097923 </v>
    <v>       0.25971949       0.92138191       0.07098040 </v>
    <v>       0.25920730       0.07859181       0.30387051 </v>
    <v>      -0.02018679       0.92228814       0.31308296 </v>
    <v>       0.98251791       0.07966695       0.06503937 </v>
    <v>       0.75535402       0.92588481       0.05517413 </v>
    <v>       0.76417112       0.07363820       0.31818476 </v>
    <v>       0.49790640       0.92005483       0.30831595 </v>
    <v>       0.49718786       0.07997115       0.56743774 </v>
    <v>       0.24887076       0.92202290       0.58206986 </v>
    <v>       0.24975118       0.07778492       0.79259789 </v>
    <v>      -0.00705600       0.92718361       0.79703736 </v>
    <v>       0.98904500       0.06897606       0.57301653 </v>
    <v>       0.76514596       0.92723306       0.55724606 </v>
    <v>       0.75605319       0.07353627       0.81871704 </v>
    <v>       0.50191609       0.92121283       0.81264408 </v>
   </varray>
  </structure>
  <varray name="forces" >
   <v>      -0.34232871       0.00896068      -0.09230563 </v>
   <v>       0.23744461       0.01421652      -0.08447459 </v>
   <v>       0.60638177      -0.02717344      -0.03298569 </v>
   <v>       0.15704026       0.30447449       0.88184013 </v>
   <v>      -0.86278401      -0.26079757       0.41295790 </v>
   <v>      -1.08061259       0.02306502      -0.12882061 </v>
   <v>       0.14366282      -0.11588798       0.23419838 </v>
   <v>       0.15970248      -0.01379395       0.06091049 </v>
   <v>      -0.37299824       0.03073191      -0.18843024 </v>
   <v>      -0.16727531      -0.16549149      -0.05523570 </v>
   <v>       0.10859841       1.27536053      -0.08764426 </v>
   <v>       0.00271934      -1.30751872       0.08968364 </v>
   <v>       0.20616277       0.33183935      -0.09472084 </v>
   <v>       0.24119000      -0.23201492      -0.04862985 </v>
   <v>      -0.03642794       0.58732210       0.01030656 </v>
   <v>       0.19511939      -0.72184229      -0.00745371 </v>
   <v>      -0.22867705       0.40270127       0.14672863 </v>
   <v>      -0.17101666      -0.74605019       0.13966634 </v>
   <v>      -0.18072731       0.46253650       0.17342339 </v>
   <v>      -0.07045523      -0.45259919      -0.19350489 </v>
   <v>       0.04514951       0.05030652       0.08417479 </v>
[...]
       <r>    8.6217    0.0000 </r>
       <r>    8.6981    0.0000 </r>
       <r>    8.7387    0.0000 </r>
       <r>    8.8264    0.0000 </r>
       <r>    8.8517    0.0000 </r>
       <r>    9.0202    0.0000 </r>
       <r>    9.4831    0.0000 </r>
       <r>    9.8698    0.0000 </r>
       <r>    9.9156    0.0000 </r>
       <r>   10.0828    0.0000 </r>
       <r>   10.1573    0.0000 </r>
       <r>   10.1882    0.0000 </r>
      </set>
     </set>
    </set>
   </array>
  </eigenvalues>
  <separator name="orbital magnetization" >
   <v name="MAGDIPOLOUT">      0.00000000      0.00000000      0.00000000</v>
  </separator>
  <dos>
   <i name="efermi">      3.97954916 </i>
   <total>
    <array>
     <dimension dim="1">gridpoints</dimension>
     <dimension dim="2">spin</dimension>
     <field>energy</field>
     <field>total</field>
     <field>integrated</field>
     <set>
      <set comment="spin 1">
       <r>   -42.5255     0.0000     0.0000 </r>
       <r>   -42.3411     0.0000     0.0000 </r>
       <r>   -42.1568     0.0000     0.0000 </r>
       <r>   -41.9724     0.0000     0.0000 </r>
       <r>   -41.7881     0.0000     0.0000 </r>
       <r>   -41.6037     0.0000     0.0000 </r>
       <r>   -41.4193     0.0000     0.0000 </r>
       <r>   -41.2350     0.0000     0.0000 </r>
       <r>   -41.0506     0.0000     0.0000 </r>
       <r>   -40.8663     0.0000     0.0000 </r>
       <r>   -40.6819     0.0000     0.0000 </r>
       <r>   -40.4975     0.0000     0.0000 </r>
       <r>   -40.3132     0.0000     0.0000 </r>
       <r>   -40.1288     0.0000     0.0000 </r>
       <r>   -39.9445     0.0000     2.0000 </r>
       <r>   -39.7601     0.0000     2.0000 </r>
       <r>   -39.5757     0.0000     2.0000 </r>
       <r>   -39.3914     0.0000     4.0000 </r>
       <r>   -39.2070     0.0000     4.0000 </r>
       <r>   -39.0226     0.0000     4.0000 </r>
       <r>   -38.8383     0.0000     4.0000 </r>
       <r>   -38.6539     0.0000     4.0000 </r>
       <r>   -38.4696     0.0000     4.0000 </r>
       <r>   -38.2852     0.0000     4.0000 </r>
       <r>   -38.1008     0.0000     4.0000 </r>
       <r>   -37.9165     0.0000     4.0000 </r>
       <r>   -37.7321     0.0000     4.0000 </r>
       <r>   -37.5478     0.0000     4.0000 </r>
       <r>   -37.3634     0.0000     4.0000 </r>
       <r>   -37.1790     0.0000     4.0000 </r>
       <r>   -36.9947     0.0000     4.0000 </r>
       <r>   -36.8103     0.0000     4.0000 </r>
       <r>   -36.6260     0.0000     4.0000 </r>
       <r>   -36.4416     0.0000     4.0000 </r>
       <r>   -36.2572     0.0000     4.0000 </r>
       <r>   -36.0729     0.0000     4.0000 </r>
       <r>   -35.8885     0.0000     4.0000 </r>
       <r>   -35.7041     0.0000     4.0000 </r>
       <r>   -35.5198     0.0000     4.0000 </r>
       <r>   -35.3354     0.0000     4.0000 </r>
       <r>   -35.1511     0.0000     4.0000 </r>
       <r>   -34.9667     0.0000     4.0000 </r>
       <r>   -34.7823     0.0000     4.0000 </r>
       <r>   -34.5980     0.0000     4.0000 </r>
       <r>   -34.4136     0.0000     4.0000 </r>
       <r>   -34.2293     0.0000     4.0000 </r>
       <r>   -34.0449     0.0000     4.0000 </r>
       <r>   -33.8605     0.0000     4.0000 </r>
       <r>   -33.6762     0.0000     4.0000 </r>
       <r>   -33.4918     0.0000     4.0000 </r>
       <r>   -33.3075     0.0000     4.0000 </r>
       <r>   -33.1231     0.0000     4.0000 </r>
       <r>   -32.9387     0.0000     4.0000 </r>
       <r>   -32.7544     0.0000     4.0000 </r>
       <r>   -32.5700     0.0000     4.0000 </r>
       <r>   -32.3857     0.0000     4.0000 </r>
       <r>   -32.2013     0.0000     4.0000 </r>
       <r>   -32.0169     0.0000     4.0000 </r>
       <r>   -31.8326     0.0000     4.0000 </r>
       <r>   -31.6482     0.0000     4.0000 </r>
       <r>   -31.4638     0.0000     4.0000 </r>
       <r>   -31.2795     0.0000     4.0000 </r>
       <r>   -31.0951     0.0000     4.0000 </r>
       <r>   -30.9108     0.0000     4.0000 </r>
       <r>   -30.7264     0.0000     4.0000 </r>
       <r>   -30.5420     0.0000     4.0000 </r>
       <r>   -30.3577     0.0000     4.0000 </r>
       <r>   -30.1733     0.0000     4.0000 </r>
       <r>   -29.9890     0.0000     4.0000 </r>
       <r>   -29.8046     0.0000     4.0000 </r>
       <r>   -29.6202     0.0000     4.0000 </r>
       <r>   -29.4359     0.0000     4.0000 </r>
       <r>   -29.2515     0.0000     4.0000 </r>
       <r>   -29.0672     0.0000     4.0000 </r>
       <r>   -28.8828     0.0000     4.0000 </r>
       <r>   -28.6984     0.0000     4.0000 </r>
       <r>   -28.5141     0.0000     4.0000 </r>
       <r>   -28.3297     0.0000     4.0000 </r>
       <r>   -28.1453     0.0000     4.0000 </r>
       <r>   -27.9610     0.0000     4.0000 </r>
       <r>   -27.7766     0.0000     4.0000 </r>
       <r>   -27.5923     0.0000     4.0000 </r>
       <r>   -27.4079     0.0000     4.0000 </r>
       <r>   -27.2235     0.0000     4.0000 </r>
       <r>   -27.0392     0.0000     4.0000 </r>
       <r>   -26.8548     0.0000     4.0000 </r>
       <r>   -26.6705     0.0000     4.0000 </r>
       <r>   -26.4861     0.0000     4.0000 </r>
       <r>   -26.3017     0.0000     4.0000 </r>
       <r>   -26.1174     0.0000     4.0000 </r>
       <r>   -25.9330     0.0000     4.0000 </r>
       <r>   -25.7487     0.0000     4.0000 </r>
       <r>   -25.5643     0.0000     4.0000 </r>
       <r>   -25.3799     0.0000     4.0000 </r>
       <r>   -25.1956     0.0000     4.0000 </r>
       <r>   -25.0112     0.0000     4.0000 </r>
       <r>   -24.8269     0.0000     4.0000 </r>
       <r>   -24.6425     0.0000     4.0000 </r>
       <r>   -24.4581     0.0000     4.0000 </r>
       <r>   -24.2738     0.0000     4.0000 </r>
       <r>   -24.0894     0.0000     4.0000 </r>
       <r>   -23.9050     0.0000     4.0000 </r>
       <r>   -23.7207     0.0000     4.0000 </r>
       <r>   -23.5363     0.0000     4.0000 </r>
       <r>   -23.3520     0.0000     4.0000 </r>
       <r>   -23.1676     0.0000     4.0000 </r>
       <r>   -22.9832     0.0000     4.0000 </r>
       <r>   -22.7989     0.0000     4.0000 </r>
       <r>   -22.6145     0.0000     4.0000 </r>
       <r>   -22.4302     0.0000     4.0000 </r>
       <r>   -22.2458     0.0000     4.0000 </r>
       <r>   -22.0614     0.0000     4.0000 </r>
       <r>   -21.8771     0.0000     4.0000 </r>
       <r>   -21.6927     0.0000     4.0000 </r>
       <r>   -21.5084     0.0000     4.0000 </r>
       <r>   -21.3240     0.0000     4.0000 </r>
       <r>   -21.1396     0.0000     4.0000 </r>
       <r>   -20.9553     0.0000     4.0000 </r>
       <r>   -20.7709     0.0000     4.0000 </r>
       <r>   -20.5866     0.0000     4.0000 </r>
       <r>   -20.4022     0.0000     4.0000 </r>
       <r>   -20.2178     0.0000     4.0000 </r>
       <r>   -20.0335     0.0000     4.0000 </r>
       <r>   -19.8491     0.0000     4.0000 </r>
       <r>   -19.6647     0.0000     4.0000 </r>
       <r>   -19.4804     0.0000     4.0000 </r>
       <r>   -19.2960     0.0000     4.0000 </r>
       <r>   -19.1117     0.0000    20.0000 </r>
       <r>   -18.9273  1383.0857    66.8360 </r>
       <r>   -18.7429     0.0000   122.0000 </r>
       <r>   -18.5586     0.0000   152.0000 </r>
       <r>   -18.3742     0.0000   164.0000 </r>
       <r>   -18.1899     0.0000   164.0000 </r>
       <r>   -18.0055     0.0000   164.0000 </r>
       <r>   -17.8211     0.0000   164.0000 </r>
       <r>   -17.6368     0.0000   164.0000 </r>
       <r>   -17.4524     0.0000   164.0000 </r>
       <r>   -17.2681     0.0000   164.0000 </r>
       <r>   -17.0837     0.0000   164.0000 </r>
       <r>   -16.8993     0.0000   164.0000 </r>
       <r>   -16.7150     0.0000   164.0000 </r>
       <r>   -16.5306     0.0000   164.0000 </r>
       <r>   -16.3462     0.0000   164.0000 </r>
       <r>   -16.1619     0.0000   164.0000 </r>
       <r>   -15.9775     0.0000   164.0000 </r>
       <r>   -15.7932     0.0000   164.0000 </r>
       <r>   -15.6088     0.0000   164.0000 </r>
       <r>   -15.4244     0.0000   164.0000 </r>
       <r>   -15.2401     0.0000   164.0000 </r>
       <r>   -15.0557     0.0000   164.0000 </r>
       <r>   -14.8714     0.0000   164.0000 </r>
       <r>   -14.6870     0.0000   164.0000 </r>
       <r>   -14.5026     0.0000   164.0000 </r>
       <r>   -14.3183     0.0000   164.0000 </r>
       <r>   -14.1339     0.0000   164.0000 </r>
       <r>   -13.9496     0.0000   164.0000 </r>
       <r>   -13.7652     0.0000   164.0000 </r>
       <r>   -13.5808     0.0000   166.0000 </r>
       <r>   -13.3965     0.0000   170.0000 </r>
       <r>   -13.2121     0.0000   178.0000 </r>
       <r>   -13.0278     0.0000   182.0000 </r>
       <r>   -12.8434     0.0000   190.0000 </r>
       <r>   -12.6590     0.0000   192.0000 </r>
       <r>   -12.4747     0.0000   196.0000 </r>
       <r>   -12.2903     0.0000   196.0000 </r>
       <r>   -12.1059     0.0000   196.0000 </r>
       <r>   -11.9216     0.0000   196.0000 </r>
       <r>   -11.7372     0.0000   196.0000 </r>
       <r>   -11.5529     0.0000   196.0000 </r>
       <r>   -11.3685     0.0000   196.0000 </r>
       <r>   -11.1841     0.0000   196.0000 </r>
       <r>   -10.9998     0.0000   196.0000 </r>
       <r>   -10.8154     0.0000   196.0000 </r>
       <r>   -10.6311     0.0000   196.0000 </r>
       <r>   -10.4467     0.0000   196.0000 </r>
       <r>   -10.2623     0.0000   196.0000 </r>
       <r>   -10.0780     0.0000   196.0000 </r>
       <r>    -9.8936     0.0000   196.0000 </r>
       <r>    -9.7093     1.3487   196.0128 </r>
       <r>    -9.5249     8.1009   197.6922 </r>
       <r>    -9.3405    11.4730   199.0654 </r>
       <r>    -9.1562     5.3780   200.2023 </r>
       <r>    -8.9718    10.5096   202.5540 </r>
       <r>    -8.7874    15.9908   205.9023 </r>
       <r>    -8.6031    16.3178   209.4891 </r>
       <r>    -8.4187     0.0000   212.0000 </r>
       <r>    -8.2344    29.8154   217.2166 </r>
       <r>    -8.0500    19.5322   222.7664 </r>
       <r>    -7.8656    29.5881   224.8240 </r>
       <r>    -7.6813     0.3073   227.9997 </r>
       <r>    -7.4969     0.0000   228.0000 </r>
       <r>    -7.3126     0.0000   228.0000 </r>
       <r>    -7.1282     0.0000   228.0000 </r>
       <r>    -6.9438     0.0000   228.0000 </r>
       <r>    -6.7595     0.0000   228.0000 </r>
       <r>    -6.5751    10.0524   228.4094 </r>
       <r>    -6.3908    21.2793   232.4156 </r>
       <r>    -6.2064    14.9889   235.7649 </r>
       <r>    -6.0220    23.5628   239.4010 </r>
       <r>    -5.8377    23.1341   243.9630 </r>
       <r>    -5.6533    16.8361   247.9122 </r>
       <r>    -5.4690    12.6136   250.8808 </r>
       <r>    -5.2846     3.2198   252.0771 </r>
       <r>    -5.1002    16.7097   254.1187 </r>
       <r>    -4.9159     9.2108   255.8406 </r>
       <r>    -4.7315     5.8623   256.8161 </r>
       <r>    -4.5471    10.0094   258.3466 </r>
       <r>    -4.3628     3.5118   259.4103 </r>
       <r>    -4.1784     1.5483   259.8760 </r>
       <r>    -3.9941     0.0496   259.9994 </r>
       <r>    -3.8097     0.0000   260.0000 </r>
       <r>    -3.6253     0.0000   260.0000 </r>
       <r>    -3.4410     0.0000   260.0000 </r>
       <r>    -3.2566     0.0000   260.0000 </r>
       <r>    -3.0723     0.0000   260.0000 </r>
       <r>    -2.8879     0.0000   260.0000 </r>
       <r>    -2.7035     0.0000   260.0000 </r>
       <r>    -2.5192     0.0000   260.0000 </r>
       <r>    -2.3348     0.0000   260.0000 </r>
       <r>    -2.1505     0.0000   260.0000 </r>
       <r>    -1.9661     0.0000   260.0000 </r>
       <r>    -1.7817     0.0000   260.0000 </r>
       <r>    -1.5974     0.0000   260.0000 </r>
       <r>    -1.4130     8.4506   260.6848 </r>
       <r>    -1.2286     8.2237   262.2403 </r>
       <r>    -1.0443    11.2603   263.7387 </r>
       <r>    -0.8599    14.5255   266.3125 </r>
       <r>    -0.6756    27.9144   270.1123 </r>
       <r>    -0.4912    32.0227   275.5351 </r>
       <r>    -0.3068    36.8274   282.0750 </r>
       <r>    -0.1225    39.3022   289.2735 </r>
       <r>     0.0619    46.5586   296.4551 </r>
       <r>     0.2462    52.3250   303.0558 </r>
       <r>     0.4306    57.9761   309.9211 </r>
       <r>     0.6150    35.3220   317.7497 </r>
       <r>     0.7993    28.4038   325.8432 </r>
       <r>     0.9837    44.6010   333.8467 </r>
       <r>     1.1680    40.1068   342.9762 </r>
       <r>     1.3524    44.2206   351.1358 </r>
       <r>     1.5368    32.3079   359.1082 </r>
       <r>     1.7211    38.3831   365.7008 </r>
       <r>     1.9055    46.6238   374.5243 </r>
       <r>     2.0898    58.7139   383.9100 </r>
       <r>     2.2742    62.8298   394.6574 </r>
       <r>     2.4586    52.5222   405.1240 </r>
       <r>     2.6429    63.5738   415.6066 </r>
       <r>     2.8273    50.9664   426.6721 </r>
       <r>     3.0117    50.4785   434.9858 </r>
       <r>     3.1960    39.6870   441.8630 </r>
       <r>     3.3804    19.4798   447.0297 </r>
       <r>     3.5647    12.9381   450.2944 </r>
       <r>     3.7491     3.7633   451.7607 </r>
       <r>     3.9335     0.0229   451.9999 </r>
       <r>     4.1178     0.0000   452.0000 </r>
       <r>     4.3022     0.0000   452.0000 </r>
       <r>     4.4865     0.0000   452.0000 </r>
       <r>     4.6709     0.0000   452.0000 </r>
       <r>     4.8553     0.0000   452.0000 </r>
       <r>     5.0396     3.3730   452.1911 </r>
       <r>     5.2240    10.8703   453.4964 </r>
       <r>     5.4083    10.3962   455.5825 </r>
       <r>     5.5927    24.6062   458.3849 </r>
       <r>     5.7771    16.2867   462.2832 </r>
       <r>     5.9614    14.5302   465.0899 </r>
       <r>     6.1458    15.2413   467.7990 </r>
       <r>     6.3302    17.6737   470.8074 </r>
       <r>     6.5145    20.8151   474.3542 </r>
       <r>     6.6989    24.6021   478.5807 </r>
       <r>     6.8832    23.5508   483.1756 </r>
       <r>     7.0676    28.9549   488.0794 </r>
       <r>     7.2520    26.4085   492.8718 </r>
       <r>     7.4363    28.1811   498.2365 </r>
       <r>     7.6207    30.2309   503.4510 </r>
       <r>     7.8050    34.0569   509.7215 </r>
       <r>     7.9894    31.9011   515.6998 </r>
       <r>     8.1738    27.2737   521.3410 </r>
       <r>     8.3581    31.0465   526.5087 </r>
       <r>     8.5425    24.1247   532.7130 </r>
       <r>     8.7268    25.2650   538.5658 </r>
       <r>     8.9112    25.0133   542.7815 </r>
       <r>     9.0956    14.1385   546.0376 </r>
       <r>     9.2799     5.0472   547.6608 </r>
       <r>     9.4643     8.9022   549.9246 </r>
       <r>     9.6486     7.0550   550.9415 </r>
       <r>     9.8330    13.9651   552.8899 </r>
       <r>    10.0174    18.5753   556.2607 </r>
       <r>    10.2017    13.2499   559.7528 </r>
       <r>    10.3861     0.0000   560.0000 </r>
       <r>    10.5705     0.0000   560.0000 </r>
       <r>    10.7548     0.0000   560.0000 </r>
       <r>    10.9392     0.0000   560.0000 </r>
       <r>    11.1235     0.0000   560.0000 </r>
       <r>    11.3079     0.0000   560.0000 </r>
       <r>    11.4923     0.0000   560.0000 </r>
       <r>    11.6766     0.0000   560.0000 </r>
       <r>    11.8610     0.0000   560.0000 </r>
       <r>    12.0453     0.0000   560.0000 </r>
       <r>    12.2297     0.0000   560.0000 </r>
       <r>    12.4141     0.0000   560.0000 </r>
       <r>    12.5984     0.0000   560.0000 </r>
       <r>    12.7828     0.0000   560.0000 </r>
      </set>
     </set>
    </array>
   </total>
  </dos>
 </calculation>
 <structure name="finalpos" >
  <crystal>
   <varray name="basis" >
    <v>      11.23957742       0.27687841      -0.04190220 </v>
    <v>       0.23979366       9.72332526      -0.02280057 </v>
    <v>      -0.04110292      -0.02165200      11.22009858 </v>
   </varray>
   <i name="volume">   1225.43368325 </i>
   <varray name="rec_basis" >
    <v>       0.08902658      -0.00219479       0.00032190 </v>
    <v>      -0.00253436       0.10290842       0.00018930 </v>
    <v>       0.00032733       0.00020093       0.08912736 </v>
   </varray>
  </crystal>
  <varray name="positions" >
   <v>       0.41845487       0.01677923       0.41495277 </v>
   <v>       0.89073525      -0.01007879       0.93874500 </v>
   <v>       0.40354064       0.01223107       0.16705897 </v>
   <v>       0.88478235      -0.00195190       0.44069491 </v>
   <v>       0.85398134      -0.00910360       0.18189810 </v>
   <v>       0.11865424      -0.00284964       0.69302318 </v>
   <v>       0.38443009      -0.00297202       0.70156895 </v>
   <v>       0.62431884       0.00213654       0.93585738 </v>
   <v>       0.85319925      -0.00004772       0.69782222 </v>
   <v>       0.00220595       0.27945688       0.07028069 </v>
   <v>       0.25728395       0.72703322       0.06593259 </v>
   <v>       0.26625222       0.31569422       0.30704072 </v>
   <v>       0.49992164       0.69448042       0.30844398 </v>
   <v>       0.50372714       0.31516192       0.06507019 </v>
   <v>       0.75423980       0.68692755       0.05991246 </v>
   <v>       0.75854867       0.31669223       0.31670741 </v>
   <v>       0.00215826       0.67836336       0.30598545 </v>
   <v>       0.00086839       0.30777947       0.56622133 </v>
   <v>       0.25734069       0.68704496       0.56732844 </v>
   <v>       0.24931821       0.31255799       0.81144204 </v>
   <v>       0.50472030       0.69685691       0.81351045 </v>
   <v>       0.49554430       0.29073942       0.56406996 </v>
   <v>       0.75570987       0.69475545       0.55650245 </v>
   <v>       0.75002389       0.31109528       0.82028693 </v>
   <v>       0.00592087       0.68487240       0.80945822 </v>
   <v>       0.26287996       0.34317074       0.06226168 </v>
   <v>      -0.00541496       0.65173740       0.06211234 </v>
   <v>       0.51388642       0.35628769       0.31483986 </v>
   <v>       0.24654404       0.67581638       0.31372993 </v>
   <v>       0.76374664       0.36089513       0.06220346 </v>
   <v>       0.49781009       0.64518674       0.06233574 </v>
   <v>       0.01096569       0.33616456       0.31244999 </v>
   <v>       0.74881525       0.64742255       0.31528100 </v>
   <v>       0.26153994       0.36470364       0.56390228 </v>
   <v>      -0.00417985       0.63028960       0.56534129 </v>
   <v>       0.51049054       0.34188985       0.81206356 </v>
   <v>       0.24487560       0.64423394       0.81519940 </v>
   <v>       0.76366479       0.34444469       0.56530197 </v>
   <v>       0.49761911       0.66215182       0.56722268 </v>
   <v>       0.00661057       0.34704480       0.81195486 </v>
   <v>       0.74654246       0.64736226       0.81375168 </v>
   <v>       0.52156216       0.09960546       0.05771381 </v>
   <v>       0.28905407       0.92601420       0.06408268 </v>
   <v>       0.31727139       0.11309349       0.29964838 </v>
   <v>      -0.04848378       0.88721771       0.30766064 </v>
   <v>       0.95734670       0.07971895       0.06846810 </v>
   <v>       0.75680399       0.90703706       0.04371365 </v>
   <v>       0.79112822       0.10385628       0.31770868 </v>
   <v>       0.48959965       0.90242505       0.29302320 </v>
   <v>       0.46461806       0.08567429       0.56869900 </v>
   <v>       0.25347024       0.89585950       0.61501933 </v>
   <v>       0.24391924       0.10409069       0.77146148 </v>
   <v>      -0.01160627       0.90639199       0.78968353 </v>
   <v>       0.98030145       0.08257978       0.58551122 </v>
   <v>       0.78966348       0.90403272       0.56108369 </v>
   <v>       0.75820435       0.08747564       0.83085506 </v>
   <v>       0.50947976       0.91301057       0.81789101 </v>
  </varray>
 </structure>
</modeling>
