<?xml version="1.0" encoding="ISO-8859-1"?>
<modeling>
 <generator>
  <i name="program" type="string">vasp </i>
  <i name="version" type="string">5.4.4.18Apr17-6-g9f103f2a35  </i>
  <i name="subversion" type="string">(build Jul 31 2017 11:33:29) complex            parallel </i>
  <i name="platform" type="string">LinuxIFC </i>
  <i name="date" type="string">2021 09 22 </i>
  <i name="time" type="string">10:47:37 </i>
 </generator>
 <incar>
  <i type="string" name="SYSTEM"> La2O2S</i>
  <i type="string" name="PREC">normal</i>
  <i type="int" name="NELMIN">     4</i>
  <i type="int" name="IBRION">     2</i>
  <i type="int" name="NFREE">    10</i>
  <i name="EDIFF">      0.00000100</i>
  <i name="EDIFFG">     -0.01000000</i>
  <i type="int" name="NSW">   200</i>
  <i type="int" name="ISIF">     3</i>
  <i name="ENCUT">    600.00000000</i>
  <i name="ENAUG">    900.00000000</i>
  <i type="int" name="ISMEAR">    -5</i>
  <i type="logical" name="LWAVE"> F  </i>
  <i type="logical" name="LCHARG"> F  </i>
  <v type="int" name="KPOINT_BSE">    -1     0     0     0</v>
 </incar>
 <structure name="primitive_cell" >
  <crystal>
   <varray name="basis" >
    <v>      11.17850000       0.00000000       0.00000000 </v>
    <v>       0.00000000       9.57460000       0.00000000 </v>
    <v>       0.00000000       0.00000000      11.18240000 </v>
   </varray>
   <i name="volume">   1196.84853820 </i>
   <varray name="rec_basis" >
    <v>       0.08945744       0.00000000       0.00000000 </v>
    <v>       0.00000000       0.10444301       0.00000000 </v>
    <v>       0.00000000       0.00000000       0.08942624 </v>
   </varray>
  </crystal>
  <varray name="positions" >
   <v>       0.37539000       0.00017000       0.43687000 </v>
   <v>      -0.49987000      -0.07798000       0.31246000 </v>
   <v>       0.25013000       0.07798000       0.31246000 </v>
   <v>       0.49987000       0.07798000      -0.43754000 </v>
   <v>       0.24987000      -0.07798000      -0.43754000 </v>
   <v>      -0.37461000      -0.00016000       0.43687000 </v>
   <v>       0.49987000      -0.29519000       0.31282000 </v>
   <v>       0.24987000       0.29519000       0.31282000 </v>
   <v>      -0.49987000       0.29519000      -0.43719000 </v>
   <v>       0.25013000      -0.29519000      -0.43719000 </v>
   <v>       0.49995000       0.32677000       0.31286000 </v>
   <v>       0.24995000      -0.32677000       0.31286000 </v>
   <v>      -0.49995000      -0.32677000      -0.43714000 </v>
   <v>       0.25005000       0.32677000      -0.43714000 </v>
   <v>      -0.37539000      -0.00016000       0.18687000 </v>
   <v>      -0.37539000      -0.00016000      -0.31313000 </v>
   <v>       0.12461000      -0.00016000       0.18687000 </v>
   <v>       0.12461000      -0.00016000      -0.31313000 </v>
   <v>       0.49987000       0.07798000       0.06246000 </v>
   <v>      -0.24987000       0.07798000       0.31246000 </v>
   <v>      -0.25013000      -0.07798000      -0.43754000 </v>
   <v>       0.24987000      -0.07798000       0.06246000 </v>
   <v>       0.00013000      -0.07798000       0.31246000 </v>
   <v>      -0.49987000      -0.07798000      -0.18754000 </v>
   <v>      -0.00013000       0.07798000      -0.43754000 </v>
   <v>       0.25013000       0.07798000      -0.18754000 </v>
   <v>      -0.49987000       0.29519000       0.06281000 </v>
   <v>      -0.25013000       0.29519000       0.31282000 </v>
   <v>       0.25013000      -0.29519000       0.06281000 </v>
   <v>      -0.24987000      -0.29519000      -0.43719000 </v>
   <v>      -0.00013000      -0.29519000       0.31282000 </v>
   <v>       0.00013000       0.29519000      -0.43719000 </v>
   <v>       0.49987000      -0.29519000      -0.18718000 </v>
   <v>       0.24987000       0.29519000      -0.18718000 </v>
   <v>      -0.49995000      -0.32677000       0.06286000 </v>
   <v>       0.25005000       0.32677000       0.06286000 </v>
   <v>      -0.25005000      -0.32677000       0.31286000 </v>
   <v>      -0.24995000       0.32677000      -0.43714000 </v>
   <v>      -0.00005000       0.32677000       0.31286000 </v>
   <v>       0.00005000      -0.32677000      -0.43714000 </v>
   <v>       0.49995000       0.32677000      -0.18714000 </v>
   <v>       0.24995000      -0.32677000      -0.18714000 </v>
   <v>      -0.12461000       0.00017000       0.43687000 </v>
   <v>       0.37539000       0.00017000      -0.06313000 </v>
   <v>      -0.25013000      -0.07798000       0.06246000 </v>
   <v>      -0.00013000       0.07798000       0.06246000 </v>
   <v>      -0.24987000       0.07798000      -0.18754000 </v>
   <v>       0.00013000      -0.07798000      -0.18754000 </v>
   <v>      -0.12539000       0.00017000       0.18687000 </v>
   <v>       0.12539000      -0.00016000      -0.06313000 </v>
   <v>      -0.24987000      -0.29519000       0.06281000 </v>
   <v>       0.00013000       0.29519000       0.06281000 </v>
   <v>      -0.25013000       0.29519000      -0.18718000 </v>
   <v>      -0.00013000      -0.29519000      -0.18718000 </v>
   <v>      -0.24995000       0.32677000       0.06286000 </v>
   <v>       0.00005000      -0.32677000       0.06286000 </v>
   <v>      -0.25005000      -0.32677000      -0.18714000 </v>
   <v>      -0.00005000       0.32677000      -0.18714000 </v>
   <v>      -0.12461000       0.00017000      -0.06313000 </v>
  </varray>
 </structure>
 <varray name="primitive_index" >
  <v type="int" >        1 </v>
  <v type="int" >       51 </v>
  <v type="int" >       46 </v>
  <v type="int" >       52 </v>
  <v type="int" >       53 </v>
  <v type="int" >        3 </v>
  <v type="int" >       15 </v>
  <v type="int" >       14 </v>
  <v type="int" >       24 </v>
  <v type="int" >       21 </v>
  <v type="int" >       30 </v>
  <v type="int" >       31 </v>
  <v type="int" >       41 </v>
  <v type="int" >       36 </v>
  <v type="int" >        4 </v>
  <v type="int" >       11 </v>
  <v type="int" >        2 </v>
  <v type="int" >        9 </v>
  <v type="int" >       44 </v>
  <v type="int" >       50 </v>
  <v type="int" >       57 </v>
  <v type="int" >       45 </v>
  <v type="int" >       47 </v>
  <v type="int" >       59 </v>
  <v type="int" >       56 </v>
  <v type="int" >       54 </v>
  <v type="int" >       16 </v>
  <v type="int" >       18 </v>
  <v type="int" >       13 </v>
  <v type="int" >       25 </v>
  <v type="int" >       19 </v>
  <v type="int" >       20 </v>
  <v type="int" >       23 </v>
  <v type="int" >       22 </v>
  <v type="int" >       33 </v>
  <v type="int" >       28 </v>
  <v type="int" >       35 </v>
  <v type="int" >       40 </v>
  <v type="int" >       34 </v>
  <v type="int" >       37 </v>
  <v type="int" >       38 </v>
  <v type="int" >       39 </v>
  <v type="int" >        7 </v>
  <v type="int" >        6 </v>
  <v type="int" >       49 </v>
  <v type="int" >       48 </v>
  <v type="int" >       58 </v>
  <v type="int" >       55 </v>
  <v type="int" >        8 </v>
  <v type="int" >        5 </v>
  <v type="int" >       17 </v>
  <v type="int" >       12 </v>
  <v type="int" >       26 </v>
  <v type="int" >       27 </v>
  <v type="int" >       32 </v>
  <v type="int" >       29 </v>
  <v type="int" >       43 </v>
  <v type="int" >       42 </v>
  <v type="int" >       10 </v>
 </varray>
 <kpoints>
  <generation param="Gamma">
   <v type="int" name="divisions">       2        2        2 </v>
   <v name="usershift">      0.00000000       0.00000000       0.00000000 </v>
   <v name="genvec1">      0.50000000       0.00000000       0.00000000 </v>
   <v name="genvec2">      0.00000000       0.50000000       0.00000000 </v>
   <v name="genvec3">      0.00000000       0.00000000       0.50000000 </v>
   <v name="shift">      0.00000000       0.00000000       0.00000000 </v>
  </generation>
  <varray name="kpointlist" >
   <v>       0.00000000       0.00000000       0.00000000 </v>
   <v>       0.50000000       0.00000000       0.00000000 </v>
   <v>       0.00000000       0.50000000       0.00000000 </v>
   <v>       0.50000000       0.50000000       0.00000000 </v>
   <v>       0.00000000       0.00000000       0.50000000 </v>
   <v>       0.50000000       0.00000000       0.50000000 </v>
   <v>       0.00000000       0.50000000       0.50000000 </v>
   <v>       0.50000000       0.50000000       0.50000000 </v>
  </varray>
  <varray name="weights" >
   <v>       0.12500000 </v>
   <v>       0.12500000 </v>
   <v>       0.12500000 </v>
   <v>       0.12500000 </v>
   <v>       0.12500000 </v>
   <v>       0.12500000 </v>
   <v>       0.12500000 </v>
   <v>       0.12500000 </v>
  </varray>
  <varray name="tetrahedronlist"  type="int" >
   <v type="int" >        2        1        2        4        5 </v>
   <v type="int" >        2        1        3        4        5 </v>
   <v type="int" >        2        3        4        5        7 </v>
   <v type="int" >        2        2        4        5        6 </v>
   <v type="int" >        2        4        5        6        8 </v>
   <v type="int" >        2        4        5        7        8 </v>
   <v type="int" >        2        1        2        3        6 </v>
   <v type="int" >        2        2        3        4        6 </v>
   <v type="int" >        2        3        4        6        8 </v>
   <v type="int" >        2        1        3        5        6 </v>
   <v type="int" >        2        3        5        6        7 </v>
   <v type="int" >        2        3        6        7        8 </v>
   <v type="int" >        2        2        3        4        7 </v>
   <v type="int" >        2        1        2        3        7 </v>
   <v type="int" >        2        1        2        5        7 </v>
   <v type="int" >        2        2        4        7        8 </v>
   <v type="int" >        2        2        6        7        8 </v>
   <v type="int" >        2        2        5        6        7 </v>
   <v type="int" >        2        1        3        4        8 </v>
   <v type="int" >        2        1        2        4        8 </v>
   <v type="int" >        2        1        2        6        8 </v>
   <v type="int" >        2        1        3        7        8 </v>
   <v type="int" >        2        1        5        7        8 </v>
   <v type="int" >        2        1        5        6        8 </v>
  </varray>
  <i name="volumeweight">      0.02083333 </i>
 </kpoints>
 <parameters>
  <separator name="general" >
   <i type="string" name="SYSTEM">La2O2S</i>
   <i type="logical" name="LCOMPAT"> F  </i>
  </separator>
  <separator name="electronic" >
   <i type="string" name="PREC">normal</i>
   <i name="ENMAX">    600.00000000</i>
   <i name="ENAUG">    900.00000000</i>
   <i name="EDIFF">      0.00000100</i>
   <i type="int" name="IALGO">    38</i>
   <i type="int" name="IWAVPR">    11</i>
   <i type="int" name="NBANDS">   280</i>
   <i name="NELECT">    460.00000000</i>
   <i type="int" name="TURBO">     0</i>
   <i type="int" name="IRESTART">     0</i>
   <i type="int" name="NREBOOT">     0</i>
   <i type="int" name="NMIN">     0</i>
   <i name="EREF">      0.00000000</i>
   <separator name="electronic smearing" >
    <i type="int" name="ISMEAR">    -5</i>
    <i name="SIGMA">      0.20000000</i>
    <i name="KSPACING">      0.50000000</i>
    <i type="logical" name="KGAMMA"> T  </i>
   </separator>
   <separator name="electronic projectors" >
    <i type="logical" name="LREAL"> F  </i>
    <v name="ROPT">      0.00000000      0.00000000      0.00000000      0.00000000      0.00000000</v>
    <i type="int" name="LMAXPAW">  -100</i>
    <i type="int" name="LMAXMIX">     2</i>
    <i type="logical" name="NLSPLINE"> F  </i>
   </separator>
   <separator name="electronic startup" >
    <i type="int" name="ISTART">     0</i>
    <i type="int" name="ICHARG">     2</i>
    <i type="int" name="INIWAV">     1</i>
   </separator>
   <separator name="electronic spin" >
    <i type="int" name="ISPIN">     1</i>
    <i type="logical" name="LNONCOLLINEAR"> F  </i>
    <v name="MAGMOM">      1.00000000      1.00000000      1.00000000      1.00000000      1.00000000      1.00000000      1.00000000      1.00000000      1.00000000      1.00000000      1.00000000      1.00000000      1.00000000      1.00000000      1.00000000      1.00000000      1.00000000      1.00000000      1.00000000      1.00000000
      1.00000000      1.00000000      1.00000000      1.00000000      1.00000000      1.00000000      1.00000000      1.00000000      1.00000000      1.00000000      1.00000000      1.00000000      1.00000000      1.00000000      1.00000000      1.00000000      1.00000000      1.00000000      1.00000000      1.00000000
      1.00000000      1.00000000      1.00000000      1.00000000      1.00000000      1.00000000      1.00000000      1.00000000      1.00000000      1.00000000      1.00000000      1.00000000      1.00000000      1.00000000      1.00000000      1.00000000      1.00000000      1.00000000      1.00000000</v>
    <i name="NUPDOWN">     -1.00000000</i>
    <i type="logical" name="LSORBIT"> F  </i>
    <v name="SAXIS">      0.00000000      0.00000000      1.00000000</v>
    <i type="logical" name="LSPIRAL"> F  </i>
    <v name="QSPIRAL">      0.00000000      0.00000000      0.00000000</v>
    <i type="logical" name="LZEROZ"> F  </i>
   </separator>
   <separator name="electronic exchange-correlation" >
    <i type="logical" name="LASPH"> F  </i>
    <i type="logical" name="LMETAGGA"> F  </i>
   </separator>
   <separator name="electronic convergence" >
    <i type="int" name="NELM">    60</i>
    <i type="int" name="NELMDL">    -5</i>
    <i type="int" name="NELMIN">     4</i>
    <i name="ENINI">    600.00000000</i>
    <separator name="electronic convergence detail" >
     <i type="logical" name="LDIAG"> T  </i>
     <i type="logical" name="LSUBROT"> F  </i>
     <i name="WEIMIN">      0.00100000</i>
     <i name="EBREAK">      0.00000000</i>
     <i name="DEPER">      0.30000000</i>
     <i type="int" name="NRMM">     4</i>
     <i name="TIME">      0.40000000</i>
    </separator>
   </separator>
   <separator name="electronic mixer" >
    <i name="AMIX">      0.40000000</i>
    <i name="BMIX">      1.00000000</i>
    <i name="AMIN">      0.10000000</i>
    <i name="AMIX_MAG">      1.60000000</i>
    <i name="BMIX_MAG">      1.00000000</i>
    <separator name="electronic mixer details" >
     <i type="int" name="IMIX">     4</i>
     <i type="logical" name="MIXFIRST"> F  </i>
     <i type="int" name="MAXMIX">   -45</i>
     <i name="WC">    100.00000000</i>
     <i type="int" name="INIMIX">     1</i>
     <i type="int" name="MIXPRE">     1</i>
     <i type="int" name="MREMOVE">     5</i>
    </separator>
   </separator>
   <separator name="electronic dipolcorrection" >
    <i type="logical" name="LDIPOL"> F  </i>
    <i type="logical" name="LMONO"> F  </i>
    <i type="int" name="IDIPOL">     0</i>
    <i name="EPSILON">      1.00000000</i>
    <v name="DIPOL">   -100.00000000   -100.00000000   -100.00000000</v>
    <i name="EFIELD">      0.00000000</i>
   </separator>
  </separator>
  <separator name="grids" >
   <i type="int" name="NGX">    70</i>
   <i type="int" name="NGY">    60</i>
   <i type="int" name="NGZ">    70</i>
   <i type="int" name="NGXF">   140</i>
   <i type="int" name="NGYF">   120</i>
   <i type="int" name="NGZF">   140</i>
   <i type="logical" name="ADDGRID"> F  </i>
  </separator>
  <separator name="ionic" >
   <i type="int" name="NSW">   200</i>
   <i type="int" name="IBRION">     2</i>
   <i type="int" name="MDALGO">     0</i>
   <i type="int" name="ISIF">     3</i>
   <i name="PSTRESS">      0.00000000</i>
   <i name="EDIFFG">     -0.01000000</i>
   <i type="int" name="NFREE">    10</i>
   <i name="POTIM">      0.50000000</i>
   <i name="SMASS">     -3.00000000</i>
   <i name="SCALEE">      1.00000000</i>
  </separator>
  <separator name="ionic md" >
   <i name="TEBEG">      0.00010000</i>
   <i name="TEEND">      0.00010000</i>
   <i type="int" name="NBLOCK">     1</i>
   <i type="int" name="KBLOCK">   200</i>
   <i type="int" name="NPACO">   256</i>
   <i name="APACO">     16.00000000</i>
  </separator>
  <separator name="symmetry" >
   <i type="int" name="ISYM">     2</i>
   <i name="SYMPREC">      0.00001000</i>
  </separator>
  <separator name="dos" >
   <i type="int" name="LORBIT">     0</i>
   <v name="RWIGS">     -1.00000000     -1.00000000     -1.00000000     -1.00000000     -1.00000000</v>
   <i type="int" name="NEDOS">   301</i>
   <i name="EMIN">     10.00000000</i>
   <i name="EMAX">    -10.00000000</i>
   <i name="EFERMI">      0.00000000</i>
  </separator>
  <separator name="writing" >
   <i type="int" name="NWRITE">     2</i>
   <i type="logical" name="LWAVE"> F  </i>
   <i type="logical" name="LDOWNSAMPLE"> F  </i>
   <i type="logical" name="LCHARG"> F  </i>
   <i type="logical" name="LPARD"> F  </i>
   <i type="logical" name="LVTOT"> F  </i>
   <i type="logical" name="LVHAR"> F  </i>
   <i type="logical" name="LELF"> F  </i>
   <i type="logical" name="LOPTICS"> F  </i>
   <v name="STM">      0.00000000      0.00000000      0.00000000      0.00000000      0.00000000      0.00000000      0.00000000</v>
  </separator>
  <separator name="performance" >
   <i type="int" name="NPAR">    28</i>
   <i type="int" name="NSIM">     4</i>
   <i type="int" name="NBLK">    -1</i>
   <i type="logical" name="LPLANE"> T  </i>
   <i type="logical" name="LSCALAPACK"> T  </i>
   <i type="logical" name="LSCAAWARE"> F  </i>
   <i type="logical" name="LSCALU"> F  </i>
   <i type="logical" name="LASYNC"> F  </i>
   <i type="logical" name="LORBITALREAL"> F  </i>
  </separator>
  <separator name="miscellaneous" >
   <i type="int" name="IDIOT">     3</i>
   <i type="int" name="ISPECIAL">     0</i>
   <i type="logical" name="LMUSIC"> F  </i>
   <v name="POMASS">      7.01000000     24.30500000    208.98000000     32.06600000     16.00000000</v>
   <v name="DARWINR">      0.00000000      0.00000000      0.00000000      0.00000000      0.00000000</v>
   <v name="DARWINV">      1.00000000      1.00000000      1.00000000      1.00000000      1.00000000</v>
   <i type="logical" name="LCORR"> T  </i>
  </separator>
  <i type="logical" name="GGA_COMPAT"> T  </i>
  <i type="logical" name="LBERRY"> F  </i>
  <i type="int" name="ICORELEVEL">     0</i>
  <i type="logical" name="LDAU"> F  </i>
  <i type="int" name="I_CONSTRAINED_M">     0</i>
  <separator name="electronic exchange-correlation" >
   <i type="string" name="GGA">--</i>
   <i type="int" name="VOSKOWN">     0</i>
   <i type="logical" name="LHFCALC"> F  </i>
   <i type="string" name="PRECFOCK"></i>
   <i type="logical" name="LSYMGRAD"> F  </i>
   <i type="logical" name="LHFONE"> F  </i>
   <i type="logical" name="LRHFCALC"> F  </i>
   <i type="logical" name="LTHOMAS"> F  </i>
   <i type="logical" name="LMODELHF"> F  </i>
   <i name="ENCUT4O">     -1.00000000</i>
   <i type="int" name="EXXOEP">     0</i>
   <i type="int" name="FOURORBIT">     0</i>
   <i name="AEXX">      0.00000000</i>
   <i name="HFALPHA">      0.00000000</i>
   <i name="MCALPHA">      0.00000000</i>
   <i name="ALDAX">      1.00000000</i>
   <i name="AGGAX">      1.00000000</i>
   <i name="ALDAC">      1.00000000</i>
   <i name="AGGAC">      1.00000000</i>
   <i type="int" name="NKREDX">     1</i>
   <i type="int" name="NKREDY">     1</i>
   <i type="int" name="NKREDZ">     1</i>
   <i type="logical" name="SHIFTRED"> F  </i>
   <i type="logical" name="ODDONLY"> F  </i>
   <i type="logical" name="EVENONLY"> F  </i>
   <i type="int" name="LMAXFOCK">     0</i>
   <i type="int" name="NMAXFOCKAE">     0</i>
   <i type="logical" name="LFOCKAEDFT"> F  </i>
   <i name="HFSCREEN">      0.00000000</i>
   <i name="HFSCREENC">      0.00000000</i>
   <i type="int" name="NBANDSGWLOW">     0</i>
  </separator>
  <separator name="vdW DFT" >
   <i type="logical" name="LUSE_VDW"> F  </i>
   <i name="Zab_VDW">     -0.84910000</i>
   <i name="PARAM1">      0.12340000</i>
   <i name="PARAM2">      1.00000000</i>
   <i name="PARAM3">      0.00000000</i>
  </separator>
  <separator name="model GW" >
   <i type="int" name="MODEL_GW">     0</i>
   <i name="MODEL_EPS0">     12.17134107</i>
   <i name="MODEL_ALPHA">      1.00000000</i>
  </separator>
  <separator name="linear response parameters" >
   <i type="logical" name="LEPSILON"> F  </i>
   <i type="logical" name="LRPA"> F  </i>
   <i type="logical" name="LNABLA"> F  </i>
   <i type="logical" name="LVEL"> F  </i>
   <i type="int" name="KINTER">     0</i>
   <i name="CSHIFT">      0.10000000</i>
   <i name="OMEGAMAX">     -1.00000000</i>
   <i name="DEG_THRESHOLD">      0.00200000</i>
   <i name="RTIME">     -0.10000000</i>
   <i name="WPLASMAI">      0.00000000</i>
   <v name="DFIELD">      0.00000000      0.00000000      0.00000000</v>
   <v name="WPLASMA">      0.00000000      0.00000000      0.00000000      0.00000000      0.00000000      0.00000000      0.00000000      0.00000000      0.00000000</v>
  </separator>
  <separator name="orbital magnetization" >
   <i type="logical" name="NUCIND"> F  </i>
   <v name="MAGPOS">      0.00000000      0.00000000      0.00000000</v>
   <i type="logical" name="LNICSALL"> T  </i>
   <i type="logical" name="ORBITALMAG"> F  </i>
   <i type="logical" name="LMAGBLOCH"> F  </i>
   <i type="logical" name="LCHIMAG"> F  </i>
   <i type="logical" name="LGAUGE"> T  </i>
   <i type="int" name="MAGATOM">     0</i>
   <v name="MAGDIPOL">      0.00000000      0.00000000      0.00000000</v>
   <v name="AVECCONST">      0.00000000      0.00000000      0.00000000</v>
  </separator>
  <separator name="response functions" >
   <i type="logical" name="LADDER"> F  </i>
   <i type="logical" name="LRPAFORCE"> F  </i>
   <i type="logical" name="LFXC"> F  </i>
   <i type="logical" name="LHARTREE"> T  </i>
   <i type="int" name="IBSE">     0</i>
   <v type="int" name="KPOINT">    -1     0     0     0</v>
   <i type="logical" name="LTCTE"> F  </i>
   <i type="logical" name="LTETE"> F  </i>
   <i type="logical" name="LTRIPLET"> F  </i>
   <i type="logical" name="LFXCEPS"> F  </i>
   <i type="logical" name="LFXHEG"> F  </i>
   <i type="int" name="NATURALO">     2</i>
   <i type="logical" name="L2ORDER"> F  </i>
   <i type="logical" name="LMP2LT"> F  </i>
   <i type="logical" name="LUSEW"> F  </i>
   <i name="ENCUTGW">     -2.00000000</i>
   <i name="ENCUTGWSOFT">     -2.00000000</i>
   <i name="ENCUTLF">     -1.00000000</i>
   <i type="int" name="LMAXMP2">    -1</i>
   <i name="SCISSOR">      0.00000000</i>
   <i type="int" name="NOMEGA">     0</i>
   <i type="int" name="NOMEGAR">     0</i>
   <i type="int" name="NBANDSGW">    -1</i>
   <i type="int" name="NBANDSO">    -1</i>
   <i type="int" name="NBANDSV">    -1</i>
   <i type="int" name="NELM">     1</i>
   <i type="int" name="NELMHF">     1</i>
   <i type="int" name="DIM">     3</i>
   <i type="int" name="ANTIRES">     0</i>
   <i name="OMEGAMAX">    -30.00000000</i>
   <i name="OMEGAMIN">    -30.00000000</i>
   <i name="OMEGATL">   -200.00000000</i>
   <i type="int" name="OMEGAGRID">   140</i>
   <i name="CSHIFT">     -0.10000000</i>
   <i type="logical" name="SELFENERGY"> F  </i>
   <i type="logical" name="LSPECTRAL"> F  </i>
   <i type="logical" name="LSPECTRALGW"> F  </i>
   <i type="logical" name="LSINGLES"> F  </i>
   <i type="logical" name="LFERMIGW"> F  </i>
   <i type="logical" name="ODDONLYGW"> F  </i>
   <i type="logical" name="EVENONLYGW"> F  </i>
   <i type="int" name="NKREDLFX">     1</i>
   <i type="int" name="NKREDLFY">     1</i>
   <i type="int" name="NKREDLFZ">     1</i>
   <i type="int" name="MAXMEM">  2800</i>
   <i type="int" name="TELESCOPE">     0</i>
   <i type="int" name="TAUPAR">     1</i>
   <i type="int" name="OMEGAPAR">    -1</i>
   <i name="LAMBDA">      1.00000000</i>
  </separator>
  <separator name="External order field" >
   <i name="OFIELD_KAPPA">      0.00000000</i>
   <v name="OFIELD_K">      0.00000000      0.00000000      0.00000000</v>
   <i name="OFIELD_Q6_NEAR">      0.00000000</i>
   <i name="OFIELD_Q6_FAR">      0.00000000</i>
   <i name="OFIELD_A">      0.00000000</i>
  </separator>
 </parameters>
 <atominfo>
  <atoms>      59 </atoms>
  <types>       5 </types>
  <array name="atoms" >
   <dimension dim="1">ion</dimension>
   <field type="string">element</field>
   <field type="int">atomtype</field>
   <set>
    <rc><c>Li</c><c>   1</c></rc>
    <rc><c>Li</c><c>   1</c></rc>
    <rc><c>Li</c><c>   1</c></rc>
    <rc><c>Li</c><c>   1</c></rc>
    <rc><c>Li</c><c>   1</c></rc>
    <rc><c>Li</c><c>   1</c></rc>
    <rc><c>Mg</c><c>   2</c></rc>
    <rc><c>Mg</c><c>   2</c></rc>
    <rc><c>Mg</c><c>   2</c></rc>
    <rc><c>Mg</c><c>   2</c></rc>
    <rc><c>Mg</c><c>   2</c></rc>
    <rc><c>Bi</c><c>   3</c></rc>
    <rc><c>Bi</c><c>   3</c></rc>
    <rc><c>Bi</c><c>   3</c></rc>
    <rc><c>Bi</c><c>   3</c></rc>
    <rc><c>Bi</c><c>   3</c></rc>
    <rc><c>Bi</c><c>   3</c></rc>
    <rc><c>Bi</c><c>   3</c></rc>
    <rc><c>Bi</c><c>   3</c></rc>
    <rc><c>Bi</c><c>   3</c></rc>
    <rc><c>Bi</c><c>   3</c></rc>
    <rc><c>Bi</c><c>   3</c></rc>
    <rc><c>Bi</c><c>   3</c></rc>
    <rc><c>Bi</c><c>   3</c></rc>
    <rc><c>Bi</c><c>   3</c></rc>
    <rc><c>Bi</c><c>   3</c></rc>
    <rc><c>Bi</c><c>   3</c></rc>
    <rc><c>S </c><c>   4</c></rc>
    <rc><c>S </c><c>   4</c></rc>
    <rc><c>S </c><c>   4</c></rc>
    <rc><c>S </c><c>   4</c></rc>
    <rc><c>S </c><c>   4</c></rc>
    <rc><c>S </c><c>   4</c></rc>
    <rc><c>S </c><c>   4</c></rc>
    <rc><c>S </c><c>   4</c></rc>
    <rc><c>S </c><c>   4</c></rc>
    <rc><c>S </c><c>   4</c></rc>
    <rc><c>S </c><c>   4</c></rc>
    <rc><c>S </c><c>   4</c></rc>
    <rc><c>S </c><c>   4</c></rc>
    <rc><c>S </c><c>   4</c></rc>
    <rc><c>S </c><c>   4</c></rc>
    <rc><c>S </c><c>   4</c></rc>
    <rc><c>O </c><c>   5</c></rc>
    <rc><c>O </c><c>   5</c></rc>
    <rc><c>O </c><c>   5</c></rc>
    <rc><c>O </c><c>   5</c></rc>
    <rc><c>O </c><c>   5</c></rc>
    <rc><c>O </c><c>   5</c></rc>
    <rc><c>O </c><c>   5</c></rc>
    <rc><c>O </c><c>   5</c></rc>
    <rc><c>O </c><c>   5</c></rc>
    <rc><c>O </c><c>   5</c></rc>
    <rc><c>O </c><c>   5</c></rc>
    <rc><c>O </c><c>   5</c></rc>
    <rc><c>O </c><c>   5</c></rc>
    <rc><c>O </c><c>   5</c></rc>
    <rc><c>O </c><c>   5</c></rc>
    <rc><c>O </c><c>   5</c></rc>
   </set>
  </array>
  <array name="atomtypes" >
   <dimension dim="1">type</dimension>
   <field type="int">atomspertype</field>
   <field type="string">element</field>
   <field>mass</field>
   <field>valence</field>
   <field type="string">pseudopotential</field>
   <set>
    <rc><c>   6</c><c>Li</c><c>      7.01000000</c><c>      3.00000000</c><c>  PAW_PBE Li_sv 10Sep2004               </c></rc>
    <rc><c>   5</c><c>Mg</c><c>     24.30500000</c><c>      2.00000000</c><c>  PAW_PBE Mg 13Apr2007                  </c></rc>
    <rc><c>  16</c><c>Bi</c><c>    208.98000000</c><c>     15.00000000</c><c>  PAW_PBE Bi_d 06Sep2000                </c></rc>
    <rc><c>  16</c><c>S </c><c>     32.06600000</c><c>      6.00000000</c><c>  PAW_PBE S 06Sep2000                   </c></rc>
    <rc><c>  16</c><c>O </c><c>     16.00000000</c><c>      6.00000000</c><c>  PAW_PBE O 08Apr2002                   </c></rc>
   </set>
  </array>
 </atominfo>
 <structure name="initialpos" >
  <crystal>
   <varray name="basis" >
    <v>      11.17850000       0.00000000       0.00000000 </v>
    <v>       0.00000000       9.57460000       0.00000000 </v>
    <v>       0.00000000       0.00000000      11.18240000 </v>
   </varray>
   <i name="volume">   1196.84853820 </i>
   <varray name="rec_basis" >
    <v>       0.08945744       0.00000000       0.00000000 </v>
    <v>       0.00000000       0.10444301       0.00000000 </v>
    <v>       0.00000000       0.00000000       0.08942624 </v>
   </varray>
  </crystal>
  <varray name="positions" >
   <v>       0.37539000       0.00017000       0.43687000 </v>
   <v>       0.12461000       0.99984000       0.18687000 </v>
   <v>       0.62539000       0.99984000       0.43687000 </v>
   <v>       0.62461000       0.99984000       0.18687000 </v>
   <v>       0.12539000       0.99984000       0.93687000 </v>
   <v>       0.37539000       0.00017000       0.93687000 </v>
   <v>       0.87539000       0.00017000       0.43687000 </v>
   <v>       0.87461000       0.00017000       0.18687000 </v>
   <v>       0.12461000       0.99984000       0.68687000 </v>
   <v>       0.87539000       0.00017000       0.93687000 </v>
   <v>       0.62461000       0.99984000       0.68687000 </v>
   <v>       0.00013000       0.29519000       0.06281000 </v>
   <v>       0.25013000       0.70481000       0.06281000 </v>
   <v>       0.24987000       0.29519000       0.31282000 </v>
   <v>       0.49987000       0.70481000       0.31282000 </v>
   <v>       0.50013000       0.29519000       0.06281000 </v>
   <v>       0.75013000       0.70481000       0.06281000 </v>
   <v>       0.74987000       0.29519000       0.31282000 </v>
   <v>       0.99987000       0.70481000       0.31282000 </v>
   <v>       0.00013000       0.29519000       0.56281000 </v>
   <v>       0.25013000       0.70481000       0.56281000 </v>
   <v>       0.24987000       0.29519000       0.81282000 </v>
   <v>       0.49987000       0.70481000       0.81282000 </v>
   <v>       0.50013000       0.29519000       0.56281000 </v>
   <v>       0.75013000       0.70481000       0.56281000 </v>
   <v>       0.74987000       0.29519000       0.81282000 </v>
   <v>       0.99987000       0.70481000       0.81282000 </v>
   <v>       0.25005000       0.32677000       0.06286000 </v>
   <v>       0.00005000       0.67323000       0.06286000 </v>
   <v>       0.49995000       0.32677000       0.31286000 </v>
   <v>       0.24995000       0.67323000       0.31286000 </v>
   <v>       0.75005000       0.32677000       0.06286000 </v>
   <v>       0.50005000       0.67323000       0.06286000 </v>
   <v>       0.99995000       0.32677000       0.31286000 </v>
   <v>       0.74995000       0.67323000       0.31286000 </v>
   <v>       0.25005000       0.32677000       0.56286000 </v>
   <v>       0.00005000       0.67323000       0.56286000 </v>
   <v>       0.49995000       0.32677000       0.81286000 </v>
   <v>       0.24995000       0.67323000       0.81286000 </v>
   <v>       0.75005000       0.32677000       0.56286000 </v>
   <v>       0.50005000       0.67323000       0.56286000 </v>
   <v>       0.99995000       0.32677000       0.81286000 </v>
   <v>       0.74995000       0.67323000       0.81286000 </v>
   <v>       0.49987000       0.07798000       0.06246000 </v>
   <v>       0.24987000       0.92202000       0.06246000 </v>
   <v>       0.25013000       0.07798000       0.31246000 </v>
   <v>       0.00013000       0.92202000       0.31246000 </v>
   <v>       0.99987000       0.07798000       0.06246000 </v>
   <v>       0.74987000       0.92202000       0.06246000 </v>
   <v>       0.75013000       0.07798000       0.31246000 </v>
   <v>       0.50013000       0.92202000       0.31246000 </v>
   <v>       0.49987000       0.07798000       0.56246000 </v>
   <v>       0.24987000       0.92202000       0.56246000 </v>
   <v>       0.25013000       0.07798000       0.81246000 </v>
   <v>       0.00013000       0.92202000       0.81246000 </v>
   <v>       0.99987000       0.07798000       0.56246000 </v>
   <v>       0.74987000       0.92202000       0.56246000 </v>
   <v>       0.75013000       0.07798000       0.81246000 </v>
   <v>       0.50013000       0.92202000       0.81246000 </v>
  </varray>
 </structure>
 <calculation>
  <scstep>
   <time name="dav">   59.85   59.95</time>
   <time name="total">   59.93   60.03</time>
   <energy>
    <i name="alphaZ">   1060.66890660 </i>
    <i name="ewald"> -30423.64751793 </i>
    <i name="hartreedc"> -12695.65461539 </i>
    <i name="XCdc">   1247.20440068 </i>
    <i name="pawpsdc">  36635.26894311 </i>
    <i name="pawaedc"> -35972.74895369 </i>
    <i name="eentropy">      0.00000000 </i>
    <i name="bandstr">   1869.82291434 </i>
    <i name="atom">  44026.03258983 </i>
    <i name="e_fr_energy">   5746.94666754 </i>
    <i name="e_wo_entrp">   5746.94666754 </i>
    <i name="e_0_energy">   5746.94666754 </i>
   </energy>
  </scstep>
  <scstep>
   <time name="dav">   60.63   60.67</time>
   <time name="total">   60.64   60.68</time>
   <energy>
    <i name="e_fr_energy">    760.36604782 </i>
    <i name="e_wo_entrp">    760.36604782 </i>
    <i name="e_0_energy">    760.36604782 </i>
   </energy>
  </scstep>
  <scstep>
   <time name="dav">   69.38   69.37</time>
   <time name="total">   69.38   69.37</time>
   <energy>
    <i name="e_fr_energy">   -243.36112501 </i>
    <i name="e_wo_entrp">   -243.36112501 </i>
    <i name="e_0_energy">   -243.36112501 </i>
   </energy>
  </scstep>
  <scstep>
   <time name="dav">   71.50   71.50</time>
   <time name="total">   71.51   71.50</time>
   <energy>
    <i name="e_fr_energy">   -335.59870178 </i>
    <i name="e_wo_entrp">   -335.59870178 </i>
    <i name="e_0_energy">   -335.59870178 </i>
   </energy>
  </scstep>
  <scstep>
   <time name="dav">   93.38   93.40</time>
   <time name="total">   94.10   94.11</time>
   <energy>
    <i name="e_fr_energy">   -343.00939266 </i>
    <i name="e_wo_entrp">   -343.00939266 </i>
    <i name="e_0_energy">   -343.00939266 </i>
   </energy>
  </scstep>
  <scstep>
   <time name="dav">   85.26   85.30</time>
   <time name="total">   86.05   86.11</time>
   <energy>
    <i name="e_fr_energy">   -286.87242802 </i>
    <i name="e_wo_entrp">   -286.87242802 </i>
    <i name="e_0_energy">   -286.87242802 </i>
   </energy>
  </scstep>
  <scstep>
   <time name="dav">   64.29   64.34</time>
   <time name="total">   65.07   65.13</time>
   <energy>
    <i name="e_fr_energy">   -288.90230252 </i>
    <i name="e_wo_entrp">   -288.90230252 </i>
    <i name="e_0_energy">   -288.90230252 </i>
   </energy>
  </scstep>
  <scstep>
   <time name="dav">   73.62   73.72</time>
   <time name="total">   74.41   74.55</time>
   <energy>
    <i name="e_fr_energy">   -287.79766628 </i>
    <i name="e_wo_entrp">   -287.79766628 </i>
    <i name="e_0_energy">   -287.79766628 </i>
   </energy>
  </scstep>
  <scstep>
   <time name="dav">   70.21   70.50</time>
   <time name="total">   71.00   71.30</time>
   <energy>
    <i name="e_fr_energy">   -287.25184155 </i>
    <i name="e_wo_entrp">   -287.25184155 </i>
    <i name="e_0_energy">   -287.25184155 </i>
   </energy>
  </scstep>
  <scstep>
   <time name="dav">   74.57   74.85</time>
   <time name="total">   75.36   75.64</time>
   <energy>
    <i name="e_fr_energy">   -287.29623609 </i>
    <i name="e_wo_entrp">   -287.29623609 </i>
    <i name="e_0_energy">   -287.29623609 </i>
   </energy>
  </scstep>
  <scstep>
   <time name="dav">   82.49   83.00</time>
   <time name="total">   83.27   83.79</time>
   <energy>
    <i name="e_fr_energy">   -287.29776100 </i>
    <i name="e_wo_entrp">   -287.29776100 </i>
    <i name="e_0_energy">   -287.29776100 </i>
   </energy>
  </scstep>
  <scstep>
   <time name="dav">   84.59   84.98</time>
   <time name="total">   85.37   85.77</time>
   <energy>
    <i name="e_fr_energy">   -287.30113596 </i>
    <i name="e_wo_entrp">   -287.30113596 </i>
    <i name="e_0_energy">   -287.30113596 </i>
   </energy>
  </scstep>
  <scstep>
   <time name="dav">   72.43   72.82</time>
   <time name="total">   73.24   73.63</time>
   <energy>
    <i name="e_fr_energy">   -287.30171897 </i>
    <i name="e_wo_entrp">   -287.30171897 </i>
    <i name="e_0_energy">   -287.30171897 </i>
   </energy>
  </scstep>
  <scstep>
   <time name="dav">   73.94   74.31</time>
   <time name="total">   74.72   75.10</time>
   <energy>
    <i name="e_fr_energy">   -287.30181611 </i>
    <i name="e_wo_entrp">   -287.30181611 </i>
    <i name="e_0_energy">   -287.30181611 </i>
   </energy>
  </scstep>
  <scstep>
   <time name="dav">   67.85   68.17</time>
   <time name="total">   68.64   68.96</time>
   <energy>
    <i name="e_fr_energy">   -287.30187447 </i>
    <i name="e_wo_entrp">   -287.30187447 </i>
    <i name="e_0_energy">   -287.30187447 </i>
   </energy>
  </scstep>
  <scstep>
   <time name="dav">   78.25   78.71</time>
   <time name="total">   79.03   79.50</time>
   <energy>
    <i name="e_fr_energy">   -287.30189790 </i>
    <i name="e_wo_entrp">   -287.30189790 </i>
    <i name="e_0_energy">   -287.30189790 </i>
   </energy>
  </scstep>
  <scstep>
   <time name="dav">   71.02   71.49</time>
   <time name="total">   71.81   72.28</time>
   <energy>
    <i name="e_fr_energy">   -287.30190090 </i>
    <i name="e_wo_entrp">   -287.30190090 </i>
    <i name="e_0_energy">   -287.30190090 </i>
   </energy>
  </scstep>
  <scstep>
   <time name="dav">   66.28   66.63</time>
   <time name="total">   67.06   67.42</time>
   <energy>
    <i name="e_fr_energy">   -287.30190220 </i>
    <i name="e_wo_entrp">   -287.30190220 </i>
    <i name="e_0_energy">   -287.30190220 </i>
   </energy>
  </scstep>
  <scstep>
   <time name="dav">   58.11   58.49</time>
   <time name="total">   58.18   58.56</time>
   <energy>
    <i name="alphaZ">   1060.66890660 </i>
    <i name="ewald"> -30423.64751793 </i>
    <i name="hartreedc"> -12930.54832532 </i>
    <i name="XCdc">   1271.69032297 </i>
    <i name="pawpsdc">  43667.89883160 </i>
    <i name="pawaedc"> -42979.35838766 </i>
    <i name="eentropy">      0.00000000 </i>
    <i name="bandstr">  -3980.03832313 </i>
    <i name="atom">  44026.03258983 </i>
    <i name="e_fr_energy">   -287.30190304 </i>
    <i name="e_wo_entrp">   -287.30190304 </i>
    <i name="e_0_energy">   -287.30190304 </i>
   </energy>
  </scstep>
  <structure>
   <crystal>
    <varray name="basis" >
     <v>      11.17850000       0.00000000       0.00000000 </v>
     <v>       0.00000000       9.57460000       0.00000000 </v>
     <v>       0.00000000       0.00000000      11.18240000 </v>
    </varray>
    <i name="volume">   1196.84853820 </i>
    <varray name="rec_basis" >
     <v>       0.08945744       0.00000000       0.00000000 </v>
     <v>       0.00000000       0.10444301       0.00000000 </v>
     <v>       0.00000000       0.00000000       0.08942624 </v>
    </varray>
   </crystal>
   <varray name="positions" >
    <v>       0.37539000       0.00017000       0.43687000 </v>
    <v>       0.12461000       0.99984000       0.18687000 </v>
    <v>       0.62539000       0.99984000       0.43687000 </v>
    <v>       0.62461000       0.99984000       0.18687000 </v>
    <v>       0.12539000       0.99984000       0.93687000 </v>
    <v>       0.37539000       0.00017000       0.93687000 </v>
    <v>       0.87539000       0.00017000       0.43687000 </v>
    <v>       0.87461000       0.00017000       0.18687000 </v>
    <v>       0.12461000       0.99984000       0.68687000 </v>
    <v>       0.87539000       0.00017000       0.93687000 </v>
    <v>       0.62461000       0.99984000       0.68687000 </v>
    <v>       0.00013000       0.29519000       0.06281000 </v>
    <v>       0.25013000       0.70481000       0.06281000 </v>
    <v>       0.24987000       0.29519000       0.31282000 </v>
    <v>       0.49987000       0.70481000       0.31282000 </v>
    <v>       0.50013000       0.29519000       0.06281000 </v>
    <v>       0.75013000       0.70481000       0.06281000 </v>
    <v>       0.74987000       0.29519000       0.31282000 </v>
    <v>       0.99987000       0.70481000       0.31282000 </v>
    <v>       0.00013000       0.29519000       0.56281000 </v>
    <v>       0.25013000       0.70481000       0.56281000 </v>
    <v>       0.24987000       0.29519000       0.81282000 </v>
    <v>       0.49987000       0.70481000       0.81282000 </v>
    <v>       0.50013000       0.29519000       0.56281000 </v>
    <v>       0.75013000       0.70481000       0.56281000 </v>
    <v>       0.74987000       0.29519000       0.81282000 </v>
    <v>       0.99987000       0.70481000       0.81282000 </v>
    <v>       0.25005000       0.32677000       0.06286000 </v>
    <v>       0.00005000       0.67323000       0.06286000 </v>
    <v>       0.49995000       0.32677000       0.31286000 </v>
    <v>       0.24995000       0.67323000       0.31286000 </v>
    <v>       0.75005000       0.32677000       0.06286000 </v>
    <v>       0.50005000       0.67323000       0.06286000 </v>
    <v>       0.99995000       0.32677000       0.31286000 </v>
    <v>       0.74995000       0.67323000       0.31286000 </v>
    <v>       0.25005000       0.32677000       0.56286000 </v>
    <v>       0.00005000       0.67323000       0.56286000 </v>
    <v>       0.49995000       0.32677000       0.81286000 </v>
    <v>       0.24995000       0.67323000       0.81286000 </v>
    <v>       0.75005000       0.32677000       0.56286000 </v>
    <v>       0.50005000       0.67323000       0.56286000 </v>
    <v>       0.99995000       0.32677000       0.81286000 </v>
    <v>       0.74995000       0.67323000       0.81286000 </v>
    <v>       0.49987000       0.07798000       0.06246000 </v>
    <v>       0.24987000       0.92202000       0.06246000 </v>
    <v>       0.25013000       0.07798000       0.31246000 </v>
    <v>       0.00013000       0.92202000       0.31246000 </v>
    <v>       0.99987000       0.07798000       0.06246000 </v>
    <v>       0.74987000       0.92202000       0.06246000 </v>
    <v>       0.75013000       0.07798000       0.31246000 </v>
    <v>       0.50013000       0.92202000       0.31246000 </v>
    <v>       0.49987000       0.07798000       0.56246000 </v>
    <v>       0.24987000       0.92202000       0.56246000 </v>
    <v>       0.25013000       0.07798000       0.81246000 </v>
    <v>       0.00013000       0.92202000       0.81246000 </v>
    <v>       0.99987000       0.07798000       0.56246000 </v>
    <v>       0.74987000       0.92202000       0.56246000 </v>
    <v>       0.75013000       0.07798000       0.81246000 </v>
    <v>       0.50013000       0.92202000       0.81246000 </v>
   </varray>
  </structure>
  <varray name="forces" >
   <v>      -0.49312444      -0.00325742      -0.12991749 </v>
   <v>       1.30282068      -0.00581982       0.49644509 </v>
   <v>      -0.88380384      -0.12396761      -0.20032260 </v>
   <v>      -1.28605001      -0.00380856      -0.48619410 </v>
   <v>       0.88252388      -0.12270312       0.21782350 </v>
   <v>       0.47308859      -0.00381945       0.13998474 </v>
   <v>       0.99324999       0.01031234       1.70425513 </v>
   <v>       0.01393693      -0.20583026       0.03041911 </v>
   <v>       0.64678012       0.02423259      -0.95819409 </v>
   <v>      -1.03730915       0.01281904      -1.64530790 </v>
   <v>      -0.59779787       0.02206623       1.01656671 </v>
   <v>       0.65695249       2.16260957      -0.00267914 </v>
   <v>       0.55138559       0.95087740       0.21647984 </v>
   <v>       0.35997407      -1.92319664      -0.04069196 </v>
   <v>      -0.55090900       0.93648299      -0.22542790 </v>
   <v>      -0.36613549      -1.91650124       0.02873241 </v>
   <v>      -0.85618850      -1.18422643      -0.23383035 </v>
   <v>      -0.65395589       2.16372674       0.00063771 </v>
   <v>       0.85912393      -1.17901940       0.22240797 </v>
   <v>       0.40758700       0.00330922      -0.01515485 </v>
   <v>       0.32535912       1.02802148      -0.16491918 </v>
   <v>       0.55703319       0.03611140      -0.02516737 </v>
   <v>      -0.31944029       1.02641742       0.15579590 </v>
   <v>      -0.56006285       0.04326963       0.01668277 </v>
   <v>      -0.21738412      -1.04004558       0.21157097 </v>
   <v>      -0.41823219      -0.01581702       0.00391551 </v>
   <v>       0.22414138      -1.06412825      -0.21858318 </v>
   <v>      -0.57684394       0.21585729      -0.22020617 </v>
   <v>      -0.37704519       0.00648847       0.01655763 </v>
   <v>       0.57646543       0.21459701       0.21704963 </v>
   <v>      -0.36579704      -0.20763252      -0.02813492 </v>
   <v>       0.55963970      -0.04720760       0.17582761 </v>
   <v>       0.36897402      -0.20645209       0.02645634 </v>
   <v>      -0.56083044      -0.04640075      -0.17185452 </v>
   <v>       0.37520236       0.00587636      -0.01815578 </v>
   <v>      -0.21902147       0.17898108       0.26225591 </v>
   <v>      -0.30322568      -0.01475177      -0.02651132 </v>
   <v>       0.21570960       0.17984942      -0.26457232 </v>
   <v>      -0.42665922      -0.20141567      -0.02328588 </v>
   <v>       0.10967575       0.02528332      -0.18402783 </v>
   <v>       0.42597718      -0.19962178       0.02104621 </v>
   <v>      -0.11074573       0.02171270       0.18257211 </v>
   <v>       0.30725546      -0.01562566       0.02949529 </v>
   <v>       0.26716455       1.68055022       0.05930614 </v>
   <v>      -1.01512738      -0.78265183      -0.66878235 </v>
   <v>      -0.26391140       1.68479626      -0.05032157 </v>
   <v>      -1.93581327       1.09364764      -0.75001730 </v>
   <v>      -1.21283473      -1.72744924       0.00039143 </v>
   <v>       1.93097038       1.09397954       0.71207193 </v>
   <v>       1.21044229      -1.72706272      -0.02212236 </v>
   <v>       1.01821434      -0.77596599       0.66907616 </v>
   <v>       1.41758272       0.05627112      -0.12381523 </v>
   <v>      -0.65196650      -1.00374960       0.61408758 </v>
   <v>      -1.43300485       0.05067415       0.10491764 </v>
   <v>       0.42155519       0.78490705       0.84276694 </v>
   <v>      -0.30524311       0.12583412      -0.09147464 </v>
   <v>      -0.40274698       0.77902221      -0.86803653 </v>
   <v>       0.29451837       0.12956643       0.07637500 </v>
   <v>       0.64790628      -1.00002242      -0.61426210 </v>
  </varray>
  <varray name="stress" >
   <v>      -8.86576074      -0.20891838      -1.97518855 </v>
   <v>      -0.20891839     -12.25911064       0.02644921 </v>
   <v>      -1.97518835       0.02644955      -1.89133878 </v>
  </varray>
  <energy>
   <i name="e_fr_energy">   -299.96348642 </i>
   <i name="e_wo_entrp">   -299.96348642 </i>
   <i name="e_0_energy">      0.00000000 </i>
  </energy>
  <time name="totalsc"> 1507.74 1513.02</time>
 </calculation>
 <calculation>
  <scstep>
   <time name="dav">   63.34   63.65</time>
   <time name="total">   64.12   64.43</time>
   <energy>
    <i name="alphaZ">   1075.73417245 </i>
    <i name="ewald"> -30542.97092685 </i>
    <i name="hartreedc"> -13002.52361143 </i>
    <i name="XCdc">   1279.91895654 </i>
    <i name="pawpsdc">  43667.50533851 </i>
    <i name="pawaedc"> -42978.96351104 </i>
    <i name="eentropy">      0.00000000 </i>
    <i name="bandstr">  -3811.06868503 </i>
    <i name="atom">  44026.03258983 </i>
    <i name="e_fr_energy">   -286.33567703 </i>
    <i name="e_wo_entrp">   -286.33567703 </i>
    <i name="e_0_energy">   -286.33567703 </i>
   </energy>
  </scstep>
  <scstep>
   <time name="dav">   70.97   71.26</time>
   <time name="total">   71.75   72.04</time>
   <energy>
    <i name="e_fr_energy">   -289.43190095 </i>
    <i name="e_wo_entrp">   -289.43190095 </i>
    <i name="e_0_energy">   -289.43190095 </i>
   </energy>
  </scstep>
  <scstep>
   <time name="dav">   87.55   87.91</time>
   <time name="total">   88.33   88.71</time>
   <energy>
    <i name="e_fr_energy">   -289.21889516 </i>
    <i name="e_wo_entrp">   -289.21889516 </i>
    <i name="e_0_energy">   -289.21889516 </i>
   </energy>
  </scstep>
  <scstep>
   <time name="dav">   74.71   75.01</time>
   <time name="total">   75.49   75.80</time>
   <energy>
    <i name="e_fr_energy">   -289.07396913 </i>
    <i name="e_wo_entrp">   -289.07396913 </i>
    <i name="e_0_energy">   -289.07396913 </i>
   </energy>
  </scstep>
  <scstep>
   <time name="dav">   75.91   76.15</time>
   <time name="total">   76.70   76.96</time>
   <energy>
    <i name="e_fr_energy">   -289.06667110 </i>
    <i name="e_wo_entrp">   -289.06667110 </i>
    <i name="e_0_energy">   -289.06667110 </i>
   </energy>
  </scstep>
  <scstep>
   <time name="dav">   80.99   81.24</time>
   <time name="total">   81.77   82.03</time>
   <energy>
    <i name="e_fr_energy">   -289.06509179 </i>
    <i name="e_wo_entrp">   -289.06509179 </i>
    <i name="e_0_energy">   -289.06509179 </i>
   </energy>
  </scstep>
  <scstep>
   <time name="dav">   71.30   71.55</time>
   <time name="total">   72.09   72.36</time>
   <energy>
    <i name="e_fr_energy">   -289.06387637 </i>
    <i name="e_wo_entrp">   -289.06387637 </i>
    <i name="e_0_energy">   -289.06387637 </i>
   </energy>
  </scstep>
  <scstep>
   <time name="dav">   91.62   91.65</time>
   <time name="total">   92.41   92.44</time>
   <energy>
    <i name="e_fr_energy">   -289.06380000 </i>
    <i name="e_wo_entrp">   -289.06380000 </i>
    <i name="e_0_energy">   -289.06380000 </i>
   </energy>
  </scstep>
  <scstep>
   <time name="dav">   69.42   69.44</time>
   <time name="total">   70.20   70.23</time>
   <energy>
    <i name="e_fr_energy">   -289.06383442 </i>
    <i name="e_wo_entrp">   -289.06383442 </i>
    <i name="e_0_energy">   -289.06383442 </i>
   </energy>
  </scstep>
  <scstep>
   <time name="dav">   81.61   81.66</time>
   <time name="total">   82.39   82.45</time>
   <energy>
    <i name="e_fr_energy">   -289.06383677 </i>
    <i name="e_wo_entrp">   -289.06383677 </i>
    <i name="e_0_energy">   -289.06383677 </i>
   </energy>
  </scstep>
  <scstep>
   <time name="dav">   67.53   67.66</time>
   <time name="total">   68.32   68.44</time>
   <energy>
    <i name="e_fr_energy">   -289.06383676 </i>
    <i name="e_wo_entrp">   -289.06383676 </i>
    <i name="e_0_energy">   -289.06383676 </i>
   </energy>
  </scstep>
  <scstep>
   <time name="dav">   60.38   60.51</time>
   <time name="total">   61.16   61.30</time>
   <energy>
    <i name="e_fr_energy">   -289.06383594 </i>
    <i name="e_wo_entrp">   -289.06383594 </i>
    <i name="e_0_energy">   -289.06383594 </i>
   </energy>
  </scstep>
  <scstep>
   <time name="dav">   58.62   58.77</time>
   <time name="total">   58.69   58.85</time>
   <energy>
    <i name="alphaZ">   1075.73417245 </i>
    <i name="ewald"> -30542.97092685 </i>
    <i name="hartreedc"> -12880.45550417 </i>
    <i name="XCdc">   1274.67214554 </i>
    <i name="pawpsdc">  44058.03039280 </i>
    <i name="pawaedc"> -43373.02691853 </i>
    <i name="eentropy">      0.00000000 </i>
    <i name="bandstr">  -3927.07978638 </i>
    <i name="atom">  44026.03258983 </i>
    <i name="e_fr_energy">   -289.06383531 </i>
    <i name="e_wo_entrp">   -289.06383531 </i>
    <i name="e_0_energy">   -289.06383531 </i>
   </energy>
  </scstep>
  <structure>
   <crystal>
    <varray name="basis" >
     <v>      11.11796489      -0.00142649      -0.01348652 </v>
     <v>      -0.00122181       9.50290524       0.00015468 </v>
     <v>      -0.01349122       0.00018066      11.16948150 </v>
    </varray>
    <i name="volume">   1180.08710970 </i>
    <varray name="rec_basis" >
     <v>       0.08994465       0.00001156       0.00010864 </v>
     <v>       0.00001350       0.10523098      -0.00000169 </v>
     <v>       0.00010860      -0.00000144       0.08952980 </v>
    </varray>
   </crystal>
   <varray name="positions" >
    <v>       0.37326184       0.00015359       0.43630952 </v>
    <v>       0.13023254       0.99981068       0.18901174 </v>
    <v>       0.62157580       0.99921538       0.43600578 </v>
    <v>       0.61905984       0.99982081       0.18477248 </v>
    <v>       0.12919868       0.99922175       0.93780973 </v>
    <v>       0.37743169       0.00015076       0.93747392 </v>
    <v>       0.87967653       0.00022196       0.44422243 </v>
    <v>       0.87467015      -0.00086710       0.18700123 </v>
    <v>       0.12740129       0.99996210       0.68273620 </v>
    <v>       0.87091332       0.00023459       0.92977188 </v>
    <v>       0.62203011       0.99995118       0.69125563 </v>
    <v>       0.00296519       0.30608654       0.06279844 </v>
    <v>       0.25250960       0.70960110       0.06374393 </v>
    <v>       0.25142353       0.28549977       0.31264445 </v>
    <v>       0.49749246       0.70952857       0.31184747 </v>
    <v>       0.49854988       0.28553350       0.06293396 </v>
    <v>       0.74643498       0.69884315       0.06180122 </v>
    <v>       0.74704775       0.30609217       0.31282275 </v>
    <v>       0.00357769       0.69886938       0.31377950 </v>
    <v>       0.00188901       0.29520667       0.56274462 </v>
    <v>       0.25153414       0.70998980       0.56209851 </v>
    <v>       0.25227397       0.29537195       0.81271142 </v>
    <v>       0.49849140       0.70998171       0.81349213 </v>
    <v>       0.49771296       0.29540802       0.56288197 </v>
    <v>       0.74919184       0.69956962       0.56372275 </v>
    <v>       0.74806505       0.29511030       0.81283689 </v>
    <v>       0.00083732       0.69944828       0.81187700 </v>
    <v>       0.24756054       0.32785762       0.06191000 </v>
    <v>      -0.00157720       0.67326269       0.06293143 </v>
    <v>       0.50243783       0.32785127       0.31379639 </v>
    <v>       0.24837134       0.67218382       0.31273862 </v>
    <v>       0.75246522       0.32653214       0.06361855 </v>
    <v>       0.50164237       0.67218977       0.06297414 </v>
    <v>       0.99752964       0.32653620       0.31211859 </v>
    <v>       0.75156925       0.67325961       0.31278167 </v>
    <v>       0.24910478       0.32767182       0.56399141 </v>
    <v>      -0.00125862       0.67315567       0.56274563 </v>
    <v>       0.50088093       0.32767619       0.81171859 </v>
    <v>       0.24810868       0.67221515       0.81275954 </v>
    <v>       0.75052332       0.32689739       0.56206607 </v>
    <v>       0.50188837       0.67222418       0.56295080 </v>
    <v>       0.99947206       0.32687940       0.81364765 </v>
    <v>       0.75127601       0.67315127       0.81298725 </v>
    <v>       0.50102299       0.08644763       0.06271586 </v>
    <v>       0.24548905       0.91807652       0.05957477 </v>
    <v>       0.24899105       0.08646903       0.31224290 </v>
    <v>      -0.00822432       0.92753046       0.30922431 </v>
    <v>       0.99463581       0.06927606       0.06246169 </v>
    <v>       0.75820342       0.92753213       0.06553199 </v>
    <v>       0.75535386       0.06927801       0.31236456 </v>
    <v>       0.50452427       0.91811021       0.31534650 </v>
    <v>       0.50598781       0.07826353       0.56192584 </v>
    <v>       0.24705633       0.91696250       0.56510927 </v>
    <v>       0.24394563       0.07823533       0.81291263 </v>
    <v>       0.00194929       0.92597484       0.81609583 </v>
    <v>       0.99855267       0.07861403       0.56206536 </v>
    <v>       0.74813188       0.92594519       0.55871515 </v>
    <v>       0.75140104       0.07863283       0.81278949 </v>
    <v>       0.50292615       0.91698128       0.80980998 </v>
   </varray>
  </structure>
  <varray name="forces" >
   <v>      -0.32501065      -0.00056597      -0.02209362 </v>
   <v>       0.61599260      -0.01161101       0.30289134 </v>
   <v>      -0.30845798      -0.05306813      -0.15984211 </v>
   <v>      -0.60281852      -0.01839820      -0.29470333 </v>
   <v>       0.29994543      -0.05963425       0.18059379 </v>
   <v>       0.31485452       0.00005212       0.02797319 </v>
   <v>       0.26095033      -0.07544004       0.58898214 </v>
   <v>       0.03406723       0.05006625       0.04748308 </v>
   <v>       0.02603197       0.05767421      -0.30086372 </v>
   <v>      -0.29947539      -0.07868360      -0.53896087 </v>
   <v>       0.00945987       0.05149864       0.34553840 </v>
   <v>       0.19257690      -0.12097624       0.00437028 </v>
   <v>       0.12831834      -0.91985467       0.08853009 </v>
   <v>       0.11100178       2.55508008      -0.05086262 </v>
   <v>      -0.12704336      -0.91478297      -0.09114936 </v>
   <v>      -0.11595484       2.54477212       0.05641250 </v>
   <v>      -0.22650150       0.23713884       0.00401497 </v>
   <v>      -0.19166241      -0.12047830      -0.01673570 </v>
   <v>       0.22782937       0.24229223      -0.01815233 </v>
   <v>       0.11710375       0.46713768      -0.03804036 </v>
   <v>       0.20807259      -1.31101832      -0.03888466 </v>
   <v>       0.17356668       0.30321288      -0.01426164 </v>
   <v>      -0.20228057      -1.30856594       0.03746257 </v>
   <v>      -0.17777370       0.30237700       0.00175563 </v>
   <v>      -0.14713920       0.06645384      -0.04496960 </v>
   <v>      -0.12357798       0.47067254       0.03005811 </v>
   <v>       0.15250510       0.06399944       0.03591769 </v>
   <v>      -0.27541305       0.16178170      -0.12938554 </v>
   <v>      -0.13430604      -0.27971806       0.01724137 </v>
   <v>       0.27473838       0.16161356       0.12635974 </v>
   <v>      -0.17814382      -0.07516409      -0.01125005 </v>
   <v>       0.20601274       0.14892286       0.04763648 </v>
   <v>       0.17962071      -0.07396669       0.00940334 </v>
   <v>      -0.20718469       0.14957358      -0.04610527 </v>
   <v>       0.13450457      -0.27967618      -0.01792451 </v>
   <v>      -0.14007598       0.07723234       0.17472747 </v>
   <v>      -0.09375008      -0.01499112      -0.02385863 </v>
   <v>       0.13681032       0.07722841      -0.17572338 </v>
   <v>      -0.21649618      -0.18683056      -0.03205288 </v>
   <v>       0.03880489       0.14569116      -0.05752266 </v>
   <v>       0.21827603      -0.18488238       0.03161936 </v>
   <v>      -0.04049289       0.14393350       0.05683040 </v>
   <v>       0.09533005      -0.01480533       0.02375308 </v>
   <v>       0.07067862      -2.74926235      -0.02136104 </v>
   <v>      -0.51508305       1.02168463      -0.49393328 </v>
   <v>      -0.06986172      -2.76520636       0.01136505 </v>
   <v>      -0.71381451      -0.65269353      -0.16510202 </v>
   <v>      -0.43869293       0.67355979      -0.19441847 </v>
   <v>       0.69011479      -0.66344187       0.11858015 </v>
   <v>       0.44139368       0.67133660       0.19155521 </v>
   <v>       0.51330471       1.00899179       0.48756791 </v>
   <v>       0.78639682      -0.15771534      -0.12176007 </v>
   <v>      -0.32029874       1.20648899       0.26888051 </v>
   <v>      -0.78952034      -0.16319108       0.10352705 </v>
   <v>       0.50351840      -0.40603472       0.25193789 </v>
   <v>       0.20392841      -0.10108939       0.22777544 </v>
   <v>      -0.48890449      -0.39233291      -0.26708432 </v>
   <v>      -0.21396041      -0.11311210      -0.23934743 </v>
   <v>       0.31798548       1.20672491      -0.27439475 </v>
  </varray>
  <varray name="stress" >
   <v>       9.30956499      -0.14012769       1.29632248 </v>
   <v>      -0.14012773      16.50325287       0.04053397 </v>
   <v>       1.29632278       0.04053410       3.01227062 </v>
  </varray>
  <energy>
   <i name="e_fr_energy">   -301.86913129 </i>
   <i name="e_wo_entrp">   -301.86913129 </i>
   <i name="e_0_energy">      0.00000000 </i>
  </energy>
  <time name="totalsc"> 1070.82 1073.79</time>
 </calculation>
 <calculation>
  <scstep>
   <time name="dav">   64.62   65.09</time>
   <time name="total">   65.40   65.87</time>
   <energy>
    <i name="alphaZ">   1073.49192258 </i>
    <i name="ewald"> -30529.66048590 </i>
    <i name="hartreedc"> -12866.11079905 </i>
    <i name="XCdc">   1273.39460298 </i>
    <i name="pawpsdc">  44058.18515756 </i>
    <i name="pawaedc"> -43373.18304968 </i>
    <i name="eentropy">      0.00000000 </i>
    <i name="bandstr">  -3951.23890444 </i>
    <i name="atom">  44026.03258983 </i>
    <i name="e_fr_energy">   -289.08896612 </i>
    <i name="e_wo_entrp">   -289.08896612 </i>
    <i name="e_0_energy">   -289.08896612 </i>
   </energy>
  </scstep>
  <scstep>
   <time name="dav">   68.42   68.85</time>
   <time name="total">   69.20   69.64</time>
   <energy>
    <i name="e_fr_energy">   -289.15757632 </i>
    <i name="e_wo_entrp">   -289.15757632 </i>
    <i name="e_0_energy">   -289.15757632 </i>
   </energy>
  </scstep>
  <scstep>
   <time name="dav">   84.05   84.60</time>
   <time name="total">   84.82   85.38</time>
   <energy>
    <i name="e_fr_energy">   -289.15394137 </i>
    <i name="e_wo_entrp">   -289.15394137 </i>
    <i name="e_0_energy">   -289.15394137 </i>
   </energy>
  </scstep>
  <scstep>
   <time name="dav">   71.98   72.33</time>
   <time name="total">   72.76   73.11</time>
   <energy>
    <i name="e_fr_energy">   -289.15046649 </i>
    <i name="e_wo_entrp">   -289.15046649 </i>
    <i name="e_0_energy">   -289.15046649 </i>
   </energy>
  </scstep>
  <scstep>
   <time name="dav">   83.04   83.49</time>
   <time name="total">   83.83   84.28</time>
   <energy>
    <i name="e_fr_energy">   -289.15026951 </i>
    <i name="e_wo_entrp">   -289.15026951 </i>
    <i name="e_0_energy">   -289.15026951 </i>
   </energy>
  </scstep>
  <scstep>
   <time name="dav">   78.28   78.72</time>
   <time name="total">   79.06   79.50</time>
   <energy>
    <i name="e_fr_energy">   -289.15024712 </i>
    <i name="e_wo_entrp">   -289.15024712 </i>
    <i name="e_0_energy">   -289.15024712 </i>
   </energy>
  </scstep>
  <scstep>
   <time name="dav">   79.85   80.27</time>
   <time name="total">   80.63   81.06</time>
   <energy>
    <i name="e_fr_energy">   -289.15020726 </i>
    <i name="e_wo_entrp">   -289.15020726 </i>
    <i name="e_0_energy">   -289.15020726 </i>
   </energy>
  </scstep>
  <scstep>
   <time name="dav">   67.38   67.77</time>
   <time name="total">   68.16   68.56</time>
   <energy>
    <i name="e_fr_energy">   -289.15019497 </i>
    <i name="e_wo_entrp">   -289.15019497 </i>
    <i name="e_0_energy">   -289.15019497 </i>
   </energy>
  </scstep>
  <scstep>
   <time name="dav">   81.99   82.31</time>
   <time name="total">   82.77   83.09</time>
   <energy>
    <i name="e_fr_energy">   -289.15019351 </i>
    <i name="e_wo_entrp">   -289.15019351 </i>
    <i name="e_0_energy">   -289.15019351 </i>
   </energy>
  </scstep>
  <scstep>
   <time name="dav">   59.95   60.24</time>
   <time name="total">   60.73   61.03</time>
   <energy>
    <i name="e_fr_energy">   -289.15019493 </i>
    <i name="e_wo_entrp">   -289.15019493 </i>
    <i name="e_0_energy">   -289.15019493 </i>
   </energy>
  </scstep>
  <scstep>
   <time name="dav">   50.14   50.44</time>
   <time name="total">   50.21   50.51</time>
   <energy>
    <i name="alphaZ">   1073.49192258 </i>
    <i name="ewald"> -30529.66048590 </i>
    <i name="hartreedc"> -12884.41904413 </i>
    <i name="XCdc">   1274.18806508 </i>
    <i name="pawpsdc">  43984.43345200 </i>
    <i name="pawaedc"> -43298.64221044 </i>
    <i name="eentropy">      0.00000000 </i>
    <i name="bandstr">  -3934.57448468 </i>
    <i name="atom">  44026.03258983 </i>
    <i name="e_fr_energy">   -289.15019567 </i>
    <i name="e_wo_entrp">   -289.15019567 </i>
    <i name="e_0_energy">   -289.15019567 </i>
   </energy>
  </scstep>
  <structure>
   <crystal>
    <varray name="basis" >
     <v>      11.12689637      -0.00121602      -0.01149669 </v>
     <v>      -0.00104155       9.51348324       0.00013186 </v>
     <v>      -0.01150070       0.00015400      11.17138752 </v>
    </varray>
    <i name="volume">   1182.55200963 </i>
    <varray name="rec_basis" >
     <v>       0.08987242       0.00000984       0.00009252 </v>
     <v>       0.00001149       0.10511397      -0.00000144 </v>
     <v>       0.00009249      -0.00000123       0.08951449 </v>
    </varray>
   </crystal>
   <varray name="positions" >
    <v>       0.37357764       0.00015607       0.43639269 </v>
    <v>       0.12939807       0.99981492       0.18869437 </v>
    <v>       0.62214178       0.99930831       0.43613412 </v>
    <v>       0.61988356       0.99982378       0.18508331 </v>
    <v>       0.12863352       0.99931357       0.93767023 </v>
    <v>       0.37712871       0.00015357       0.93738434 </v>
    <v>       0.87903933       0.00021416       0.44313561 </v>
    <v>       0.87466122      -0.00071293       0.18698184 </v>
    <v>       0.12698795       0.99994387       0.68334631 </v>
    <v>       0.87157869       0.00022507       0.93082117 </v>
    <v>       0.62241203       0.99993472       0.69060828 </v>
    <v>       0.00254442       0.30446665       0.06279966 </v>
    <v>       0.25215635       0.70888883       0.06360556 </v>
    <v>       0.25119326       0.28694024       0.31267008 </v>
    <v>       0.49784526       0.70882718       0.31199156 </v>
    <v>       0.49878442       0.28696903       0.06291591 </v>
    <v>       0.74698340       0.69973023       0.06195088 </v>
    <v>       0.74746624       0.30447157       0.31282287 </v>
    <v>       0.00302760       0.69975241       0.31363710 </v>
    <v>       0.00162808       0.29520416       0.56275396 </v>
    <v>       0.25132589       0.70921976       0.56220337 </v>
    <v>       0.25191737       0.29534485       0.81272703 </v>
    <v>       0.49869571       0.70921294       0.81339310 </v>
    <v>       0.49807150       0.29537566       0.56287177 </v>
    <v>       0.74933094       0.70034865       0.56358808 </v>
    <v>       0.74833280       0.29512219       0.81283472 </v>
    <v>       0.00069408       0.70024530       0.81201611 </v>
    <v>       0.24792999       0.32769599       0.06205077 </v>
    <v>      -0.00133583       0.67325787       0.06292117 </v>
    <v>       0.50206859       0.32769048       0.31365763 </v>
    <v>       0.24860557       0.67233938       0.31275683 </v>
    <v>       0.75210680       0.32656745       0.06350607 </v>
    <v>       0.50140614       0.67234437       0.06295699 </v>
    <v>       0.99788883       0.32657101       0.31222854 </v>
    <v>       0.75132905       0.67325517       0.31279295 </v>
    <v>       0.24924478       0.32753778       0.56382446 </v>
    <v>      -0.00106447       0.67316675       0.56276275 </v>
    <v>       0.50074302       0.32754146       0.81188703 </v>
    <v>       0.24838187       0.67236605       0.81277471 </v>
    <v>       0.75045325       0.32687844       0.56218326 </v>
    <v>       0.50161566       0.67237366       0.56293705 </v>
    <v>       0.99954282       0.32686315       0.81353139 </v>
    <v>       0.75107928       0.67316294       0.81296821 </v>
    <v>       0.50085177       0.08518885       0.06267787 </v>
    <v>       0.24613953       0.91866283       0.06000173 </v>
    <v>       0.24915991       0.08520711       0.31227519 </v>
    <v>      -0.00698450       0.92671148       0.30970377 </v>
    <v>       0.99541242       0.07057006       0.06246236 </v>
    <v>       0.75696655       0.92671255       0.06507674 </v>
    <v>       0.75457908       0.07057149       0.31237770 </v>
    <v>       0.50387195       0.91869133       0.31491933 </v>
    <v>       0.50508035       0.07822124       0.56200365 </v>
    <v>       0.24747333       0.91771439       0.56471843 </v>
    <v>       0.24486297       0.07819751       0.81284688 </v>
    <v>       0.00167869       0.92538690       0.81555845 </v>
    <v>       0.99874815       0.07851981       0.56212389 </v>
    <v>       0.74839033       0.92536172       0.55926863 </v>
    <v>       0.75121242       0.07853576       0.81274060 </v>
    <v>       0.50251191       0.91773024       0.81020091 </v>
   </varray>
  </structure>
  <varray name="forces" >
   <v>      -0.35105204       0.00016051      -0.03895425 </v>
   <v>       0.71801576      -0.00741533       0.33241516 </v>
   <v>      -0.39641637      -0.06461283      -0.16761432 </v>
   <v>      -0.70449602      -0.01302169      -0.32429935 </v>
   <v>       0.38911944      -0.07005834       0.18784354 </v>
   <v>       0.33934655       0.00061868       0.04524224 </v>
   <v>       0.37894481      -0.05135692       0.76415866 </v>
   <v>       0.03140894       0.00045283       0.04532866 </v>
   <v>       0.12353622       0.04506536      -0.40064546 </v>
   <v>      -0.41902476      -0.05389708      -0.71167922 </v>
   <v>      -0.08548933       0.03932917       0.44766863 </v>
   <v>       0.26883364       0.11542915       0.00180183 </v>
   <v>       0.18329260      -0.58546164       0.10404118 </v>
   <v>       0.13872698       1.60170354      -0.05050188 </v>
   <v>      -0.18217612      -0.58474391      -0.10750971 </v>
   <v>      -0.14350216       1.59609528       0.05178063 </v>
   <v>      -0.32966402       0.06669196      -0.03220796 </v>
   <v>      -0.26752357       0.11589041      -0.01425204 </v>
   <v>       0.33095015       0.07130115       0.01866130 </v>
   <v>       0.16260454       0.39381874      -0.03446199 </v>
   <v>       0.21825974      -0.88204833      -0.05221492 </v>
   <v>       0.23113713       0.26356714      -0.01660707 </v>
   <v>      -0.21269559      -0.88058919       0.04967955 </v>
   <v>      -0.23515850       0.26389088       0.00488021 </v>
   <v>      -0.15925548      -0.07435060      -0.00668459 </v>
   <v>      -0.16969969       0.39365562       0.02610915 </v>
   <v>       0.16480245      -0.07888217      -0.00181234 </v>
   <v>      -0.32823622       0.17275973      -0.14314489 </v>
   <v>      -0.17067145      -0.24067046       0.01661168 </v>
   <v>       0.32766221       0.17243390       0.14007367 </v>
   <v>      -0.21119936      -0.09643959      -0.01380487 </v>
   <v>       0.26016942       0.12372139       0.06715806 </v>
   <v>       0.21298998      -0.09524623       0.01196559 </v>
   <v>      -0.26128691       0.12437275      -0.06529171 </v>
   <v>       0.17056357      -0.24068006      -0.01747893 </v>
   <v>      -0.15254868       0.09400374       0.18835977 </v>
   <v>      -0.12580604      -0.01582727      -0.02402000 </v>
   <v>       0.14928428       0.09413325      -0.18958521 </v>
   <v>      -0.25041488      -0.19012646      -0.03114760 </v>
   <v>       0.04902369       0.12874804      -0.07705055 </v>
   <v>       0.25178091      -0.18820172       0.03042598 </v>
   <v>      -0.05056580       0.12673594       0.07618359 </v>
   <v>       0.12776405      -0.01581438       0.02437563 </v>
   <v>       0.08874726      -1.81371620      -0.01082898 </v>
   <v>      -0.58330756       0.70054857      -0.51916290 </v>
   <v>      -0.08784985      -1.82455729       0.00384290 </v>
   <v>      -0.92261683      -0.42147838      -0.27424212 </v>
   <v>      -0.56731555       0.40971194      -0.15772803 </v>
   <v>       0.90158524      -0.43038469       0.22910706 </v>
   <v>       0.56939284       0.40794067       0.15292851 </v>
   <v>       0.58265452       0.69178173       0.51402629 </v>
   <v>       0.88125903      -0.12842068      -0.12379806 </v>
   <v>      -0.36682723       0.80394144       0.31961626 </v>
   <v>      -0.88649842      -0.13432687       0.10548727 </v>
   <v>       0.49137023      -0.25023681       0.34105262 </v>
   <v>       0.11487063      -0.07163331       0.16835961 </v>
   <v>      -0.47550527      -0.23847412      -0.35773834 </v>
   <v>      -0.12535715      -0.08090014      -0.18082432 </v>
   <v>       0.36406406       0.80506918      -0.32389360 </v>
  </varray>
  <varray name="stress" >
   <v>       6.27102653      -0.14999212       0.81616157 </v>
   <v>      -0.14999239       9.58991962       0.03743914 </v>
   <v>       0.81616166       0.03743954       2.03637609 </v>
  </varray>
  <energy>
   <i name="e_fr_energy">   -301.93317276 </i>
   <i name="e_wo_entrp">   -301.93317276 </i>
   <i name="e_0_energy">      0.00000000 </i>
  </energy>
  <time name="totalsc">  904.42  909.72</time>
 </calculation>
 <calculation>
  <scstep>
   <time name="dav">   65.02   65.38</time>
   <time name="total">   65.80   66.17</time>
   <energy>
    <i name="alphaZ">   1067.01091863 </i>
    <i name="ewald"> -30581.17312043 </i>
    <i name="hartreedc"> -12753.75205926 </i>
    <i name="XCdc">   1270.05336606 </i>
    <i name="pawpsdc">  43984.41779020 </i>
    <i name="pawaedc"> -43298.62530222 </i>
    <i name="eentropy">      0.00000000 </i>
    <i name="bandstr">  -4002.69192693 </i>
    <i name="atom">  44026.03258983 </i>
    <i name="e_fr_energy">   -288.72774412 </i>
    <i name="e_wo_entrp">   -288.72774412 </i>
    <i name="e_0_energy">   -288.72774412 </i>
   </energy>
  </scstep>
  <scstep>
   <time name="dav">   69.93   70.32</time>
   <time name="total">   70.71   71.11</time>
   <energy>
    <i name="e_fr_energy">   -289.87194404 </i>
    <i name="e_wo_entrp">   -289.87194404 </i>
    <i name="e_0_energy">   -289.87194404 </i>
   </energy>
  </scstep>
  <scstep>
   <time name="dav">   87.06   87.57</time>
   <time name="total">   87.82   88.38</time>
   <energy>
    <i name="e_fr_energy">   -289.84814399 </i>
    <i name="e_wo_entrp">   -289.84814399 </i>
    <i name="e_0_energy">   -289.84814399 </i>
   </energy>
  </scstep>
  <scstep>
   <time name="dav">   73.74   74.11</time>
   <time name="total">   74.52   74.90</time>
   <energy>
    <i name="e_fr_energy">   -289.82226584 </i>
    <i name="e_wo_entrp">   -289.82226584 </i>
    <i name="e_0_energy">   -289.82226584 </i>
   </energy>
  </scstep>
  <scstep>
   <time name="dav">   75.41   75.87</time>
   <time name="total">   76.19   76.66</time>
   <energy>
    <i name="e_fr_energy">   -289.81000000 </i>
    <i name="e_wo_entrp">   -289.81000000 </i>
    <i name="e_0_energy">   -289.81000000 </i>
   </energy>
  </scstep>
  <scstep>
   <time name="dav">   74.62   74.98</time>
   <time name="total">   75.40   75.79</time>
   <energy>
    <i name="e_fr_energy">   -289.80971916 </i>
    <i name="e_wo_entrp">   -289.80971916 </i>
    <i name="e_0_energy">   -289.80971916 </i>
   </energy>
  </scstep>
  <scstep>
   <time name="dav">   78.36   78.81</time>
   <time name="total">   79.16   79.63</time>
   <energy>
    <i name="e_fr_energy">   -289.80979521 </i>
    <i name="e_wo_entrp">   -289.80979521 </i>
    <i name="e_0_energy">   -289.80979521 </i>
   </energy>
  </scstep>
  <scstep>
   <time name="dav">   70.09   70.58</time>
   <time name="total">   70.87   71.37</time>
   <energy>
    <i name="e_fr_energy">   -289.80971120 </i>
    <i name="e_wo_entrp">   -289.80971120 </i>
    <i name="e_0_energy">   -289.80971120 </i>
   </energy>
  </scstep>
  <scstep>
   <time name="dav">   88.09   88.73</time>
   <time name="total">   88.87   89.52</time>
   <energy>
    <i name="e_fr_energy">   -289.80969905 </i>
    <i name="e_wo_entrp">   -289.80969905 </i>
    <i name="e_0_energy">   -289.80969905 </i>
   </energy>
  </scstep>
  <scstep>
   <time name="dav">   69.52   69.95</time>
   <time name="total">   70.31   70.73</time>
   <energy>
    <i name="e_fr_energy">   -289.80970279 </i>
    <i name="e_wo_entrp">   -289.80970279 </i>
    <i name="e_0_energy">   -289.80970279 </i>
   </energy>
  </scstep>
  <scstep>
   <time name="dav">   72.08   72.21</time>
   <time name="total">   72.86   73.00</time>
   <energy>
    <i name="e_fr_energy">   -289.80970311 </i>
    <i name="e_wo_entrp">   -289.80970311 </i>
    <i name="e_0_energy">   -289.80970311 </i>
   </energy>
  </scstep>
  <scstep>
   <time name="dav">   59.51   59.65</time>
   <time name="total">   60.30   60.44</time>
   <energy>
    <i name="e_fr_energy">   -289.80970443 </i>
    <i name="e_wo_entrp">   -289.80970443 </i>
    <i name="e_0_energy">   -289.80970443 </i>
   </energy>
  </scstep>
  <scstep>
   <time name="dav">   45.46   45.57</time>
   <time name="total">   45.53   45.65</time>
   <energy>
    <i name="alphaZ">   1067.01091863 </i>
    <i name="ewald"> -30581.17312043 </i>
    <i name="hartreedc"> -12804.88256467 </i>
    <i name="XCdc">   1272.39824715 </i>
    <i name="pawpsdc">  43698.79459753 </i>
    <i name="pawaedc"> -43008.91399167 </i>
    <i name="eentropy">      0.00000000 </i>
    <i name="bandstr">  -3959.07638144 </i>
    <i name="atom">  44026.03258983 </i>
    <i name="e_fr_energy">   -289.80970508 </i>
    <i name="e_wo_entrp">   -289.80970508 </i>
    <i name="e_0_energy">   -289.80970508 </i>
   </energy>
  </scstep>
  <structure>
   <crystal>
    <varray name="basis" >
     <v>      11.14882276      -0.00264416      -0.01040721 </v>
     <v>      -0.00226099       9.54452591       0.00038880 </v>
     <v>      -0.01041994       0.00045769      11.18065376 </v>
    </varray>
    <i name="volume">   1189.73480796 </i>
    <varray name="rec_basis" >
     <v>       0.08969565       0.00002124       0.00008359 </v>
     <v>       0.00002484       0.10477210      -0.00000427 </v>
     <v>       0.00008349      -0.00000362       0.08944029 </v>
    </varray>
   </crystal>
   <varray name="positions" >
    <v>       0.37142806       0.00015140       0.43605085 </v>
    <v>       0.13419710       0.99976973       0.19076639 </v>
    <v>       0.61926814       0.99879236       0.43515676 </v>
    <v>       0.61516432       0.99975305       0.18305931 </v>
    <v>       0.13147473       0.99877354       0.93875611 </v>
    <v>       0.37920177       0.00015079       0.93776612 </v>
    <v>       0.88199324      -0.00002186       0.44865477 </v>
    <v>       0.87481258      -0.00103879       0.18721326 </v>
    <v>       0.12838622       0.00020451       0.68036790 </v>
    <v>       0.86839634      -0.00002007       0.92560174 </v>
    <v>       0.62124094       0.00016325       0.69386324 </v>
    <v>       0.00457137       0.30848234       0.06280562 </v>
    <v>       0.25367973       0.70752353       0.06433705 </v>
    <v>       0.25226778       0.29175718       0.31240424 </v>
    <v>       0.49632694       0.70744210       0.31123342 </v>
    <v>       0.49768230       0.29176876       0.06317073 </v>
    <v>       0.74442871       0.69817038       0.06149586 </v>
    <v>       0.74544958       0.30849080       0.31276189 </v>
    <v>       0.00559133       0.69822418       0.31401988 </v>
    <v>       0.00286780       0.29714771       0.56259021 </v>
    <v>       0.25268700       0.70651783       0.56176209 </v>
    <v>       0.25364915       0.29669974       0.81262503 </v>
    <v>       0.49736554       0.70651528       0.81381147 </v>
    <v>       0.49631885       0.29674311       0.56291305 </v>
    <v>       0.74836463       0.69832471       0.56384631 </v>
    <v>       0.74704903       0.29703413       0.81294811 </v>
    <v>       0.00169251       0.69816092       0.81171284 </v>
    <v>       0.24576184       0.32889003       0.06114968 </v>
    <v>      -0.00256787       0.67208363       0.06301201 </v>
    <v>       0.50423401       0.32888143       0.31454153 </v>
    <v>       0.24721816       0.67153361       0.31265936 </v>
    <v>       0.75396487       0.32710130       0.06402812 </v>
    <v>       0.50280525       0.67154671       0.06304450 </v>
    <v>       0.99602455       0.32710890       0.31171969 </v>
    <v>       0.75255791       0.67208023       0.31269633 </v>
    <v>       0.24830563       0.32828558       0.56496891 </v>
    <v>      -0.00200726       0.67306522       0.56262513 </v>
    <v>       0.50166405       0.32829155       0.81073426 </v>
    <v>       0.24674639       0.67110909       0.81261089 </v>
    <v>       0.75080848       0.32755241       0.56161088 </v>
    <v>       0.50325571       0.67112945       0.56309484 </v>
    <v>       0.99917976       0.32752142       0.81409813 </v>
    <v>       0.75203579       0.67306033       0.81311140 </v>
    <v>       0.50158877       0.07894196       0.06271383 </v>
    <v>       0.24229858       0.92086242       0.05691407 </v>
    <v>       0.24842992       0.07891345       0.31222231 </v>
    <v>      -0.01350730       0.92637980       0.30752956 </v>
[...]
       <r>    8.5103    0.0000 </r>
       <r>    8.5837    0.0000 </r>
       <r>    8.5979    0.0000 </r>
       <r>    8.6874    0.0000 </r>
       <r>    8.7130    0.0000 </r>
       <r>    8.8047    0.0000 </r>
       <r>    8.9119    0.0000 </r>
       <r>    9.8658    0.0000 </r>
       <r>   10.0122    0.0000 </r>
      </set>
     </set>
    </set>
   </array>
  </eigenvalues>
  <separator name="orbital magnetization" >
   <v name="MAGDIPOLOUT">      0.00000000      0.00000000      0.00000000</v>
  </separator>
  <dos>
   <i name="efermi">      3.98709970 </i>
   <total>
    <array>
     <dimension dim="1">gridpoints</dimension>
     <dimension dim="2">spin</dimension>
     <field>energy</field>
     <field>total</field>
     <field>integrated</field>
     <set>
      <set comment="spin 1">
       <r>   -42.4888     0.0000     0.0000 </r>
       <r>   -42.3055     0.0000     0.0000 </r>
       <r>   -42.1221     0.0000     0.0000 </r>
       <r>   -41.9388     0.0000     0.0000 </r>
       <r>   -41.7555     0.0000     0.0000 </r>
       <r>   -41.5721     0.0000     0.0000 </r>
       <r>   -41.3888     0.0000     0.0000 </r>
       <r>   -41.2055     0.0000     0.0000 </r>
       <r>   -41.0221     0.0000     0.0000 </r>
       <r>   -40.8388     0.0000     0.0000 </r>
       <r>   -40.6555     0.0000     0.0000 </r>
       <r>   -40.4721     0.0000     0.0000 </r>
       <r>   -40.2888     0.0000     0.0000 </r>
       <r>   -40.1054     0.0000     0.0000 </r>
       <r>   -39.9221     0.0000     4.0000 </r>
       <r>   -39.7388     0.0000     8.0000 </r>
       <r>   -39.5554     0.0000     8.0000 </r>
       <r>   -39.3721     0.0000    12.0000 </r>
       <r>   -39.1888     0.0000    12.0000 </r>
       <r>   -39.0054     0.0000    12.0000 </r>
       <r>   -38.8221     0.0000    12.0000 </r>
       <r>   -38.6387     0.0000    12.0000 </r>
       <r>   -38.4554     0.0000    12.0000 </r>
       <r>   -38.2721     0.0000    12.0000 </r>
       <r>   -38.0887     0.0000    12.0000 </r>
       <r>   -37.9054     0.0000    12.0000 </r>
       <r>   -37.7221     0.0000    12.0000 </r>
       <r>   -37.5387     0.0000    12.0000 </r>
       <r>   -37.3554     0.0000    12.0000 </r>
       <r>   -37.1720     0.0000    12.0000 </r>
       <r>   -36.9887     0.0000    12.0000 </r>
       <r>   -36.8054     0.0000    12.0000 </r>
       <r>   -36.6220     0.0000    12.0000 </r>
       <r>   -36.4387     0.0000    12.0000 </r>
       <r>   -36.2554     0.0000    12.0000 </r>
       <r>   -36.0720     0.0000    12.0000 </r>
       <r>   -35.8887     0.0000    12.0000 </r>
       <r>   -35.7054     0.0000    12.0000 </r>
       <r>   -35.5220     0.0000    12.0000 </r>
       <r>   -35.3387     0.0000    12.0000 </r>
       <r>   -35.1553     0.0000    12.0000 </r>
       <r>   -34.9720     0.0000    12.0000 </r>
       <r>   -34.7887     0.0000    12.0000 </r>
       <r>   -34.6053     0.0000    12.0000 </r>
       <r>   -34.4220     0.0000    12.0000 </r>
       <r>   -34.2387     0.0000    12.0000 </r>
       <r>   -34.0553     0.0000    12.0000 </r>
       <r>   -33.8720     0.0000    12.0000 </r>
       <r>   -33.6886     0.0000    12.0000 </r>
       <r>   -33.5053     0.0000    12.0000 </r>
       <r>   -33.3220     0.0000    12.0000 </r>
       <r>   -33.1386     0.0000    12.0000 </r>
       <r>   -32.9553     0.0000    12.0000 </r>
       <r>   -32.7720     0.0000    12.0000 </r>
       <r>   -32.5886     0.0000    12.0000 </r>
       <r>   -32.4053     0.0000    12.0000 </r>
       <r>   -32.2220     0.0000    12.0000 </r>
       <r>   -32.0386     0.0000    12.0000 </r>
       <r>   -31.8553     0.0000    12.0000 </r>
       <r>   -31.6719     0.0000    12.0000 </r>
       <r>   -31.4886     0.0000    12.0000 </r>
       <r>   -31.3053     0.0000    12.0000 </r>
       <r>   -31.1219     0.0000    12.0000 </r>
       <r>   -30.9386     0.0000    12.0000 </r>
       <r>   -30.7553     0.0000    12.0000 </r>
       <r>   -30.5719     0.0000    12.0000 </r>
       <r>   -30.3886     0.0000    12.0000 </r>
       <r>   -30.2052     0.0000    12.0000 </r>
       <r>   -30.0219     0.0000    12.0000 </r>
       <r>   -29.8386     0.0000    12.0000 </r>
       <r>   -29.6552     0.0000    12.0000 </r>
       <r>   -29.4719     0.0000    12.0000 </r>
       <r>   -29.2886     0.0000    12.0000 </r>
       <r>   -29.1052     0.0000    12.0000 </r>
       <r>   -28.9219     0.0000    12.0000 </r>
       <r>   -28.7385     0.0000    12.0000 </r>
       <r>   -28.5552     0.0000    12.0000 </r>
       <r>   -28.3719     0.0000    12.0000 </r>
       <r>   -28.1885     0.0000    12.0000 </r>
       <r>   -28.0052     0.0000    12.0000 </r>
       <r>   -27.8219     0.0000    12.0000 </r>
       <r>   -27.6385     0.0000    12.0000 </r>
       <r>   -27.4552     0.0000    12.0000 </r>
       <r>   -27.2719     0.0000    12.0000 </r>
       <r>   -27.0885     0.0000    12.0000 </r>
       <r>   -26.9052     0.0000    12.0000 </r>
       <r>   -26.7218     0.0000    12.0000 </r>
       <r>   -26.5385     0.0000    12.0000 </r>
       <r>   -26.3552     0.0000    12.0000 </r>
       <r>   -26.1718     0.0000    12.0000 </r>
       <r>   -25.9885     0.0000    12.0000 </r>
       <r>   -25.8052     0.0000    12.0000 </r>
       <r>   -25.6218     0.0000    12.0000 </r>
       <r>   -25.4385     0.0000    12.0000 </r>
       <r>   -25.2551     0.0000    12.0000 </r>
       <r>   -25.0718     0.0000    12.0000 </r>
       <r>   -24.8885     0.0000    12.0000 </r>
       <r>   -24.7051     0.0000    12.0000 </r>
       <r>   -24.5218     0.0000    12.0000 </r>
       <r>   -24.3385     0.0000    12.0000 </r>
       <r>   -24.1551     0.0000    12.0000 </r>
       <r>   -23.9718     0.0000    12.0000 </r>
       <r>   -23.7885     0.0000    12.0000 </r>
       <r>   -23.6051     0.0000    12.0000 </r>
       <r>   -23.4218     0.0000    12.0000 </r>
       <r>   -23.2384     0.0000    12.0000 </r>
       <r>   -23.0551     0.0000    12.0000 </r>
       <r>   -22.8718     0.0000    12.0000 </r>
       <r>   -22.6884     0.0000    12.0000 </r>
       <r>   -22.5051     0.0000    12.0000 </r>
       <r>   -22.3218     0.0000    12.0000 </r>
       <r>   -22.1384     0.0000    12.0000 </r>
       <r>   -21.9551     0.0000    12.0000 </r>
       <r>   -21.7717     0.0000    12.0000 </r>
       <r>   -21.5884     0.0000    12.0000 </r>
       <r>   -21.4051     0.0000    12.0000 </r>
       <r>   -21.2217     0.0000    12.0000 </r>
       <r>   -21.0384     0.0000    12.0000 </r>
       <r>   -20.8551     0.0000    12.0000 </r>
       <r>   -20.6717     0.0000    12.0000 </r>
       <r>   -20.4884     0.0000    12.0000 </r>
       <r>   -20.3050     0.0000    12.0000 </r>
       <r>   -20.1217     0.0000    12.0000 </r>
       <r>   -19.9384     0.0000    12.0000 </r>
       <r>   -19.7550     0.0000    12.0000 </r>
       <r>   -19.5717     0.0000    12.0000 </r>
       <r>   -19.3884     0.0000    12.0000 </r>
       <r>   -19.2050     0.0000    12.0000 </r>
       <r>   -19.0217     0.0000    12.0000 </r>
       <r>   -18.8384     0.0000    78.0000 </r>
       <r>   -18.6550     0.0000   148.0000 </r>
       <r>   -18.4717     0.0000   172.0000 </r>
       <r>   -18.2883     0.0000   172.0000 </r>
       <r>   -18.1050     0.0000   172.0000 </r>
       <r>   -17.9217     0.0000   172.0000 </r>
       <r>   -17.7383     0.0000   172.0000 </r>
       <r>   -17.5550     0.0000   172.0000 </r>
       <r>   -17.3717     0.0000   172.0000 </r>
       <r>   -17.1883     0.0000   172.0000 </r>
       <r>   -17.0050     0.0000   172.0000 </r>
       <r>   -16.8216     0.0000   172.0000 </r>
       <r>   -16.6383     0.0000   172.0000 </r>
       <r>   -16.4550     0.0000   172.0000 </r>
       <r>   -16.2716     0.0000   172.0000 </r>
       <r>   -16.0883     0.0000   172.0000 </r>
       <r>   -15.9050     0.0000   172.0000 </r>
       <r>   -15.7216     0.0000   172.0000 </r>
       <r>   -15.5383     0.0000   172.0000 </r>
       <r>   -15.3550     0.0000   172.0000 </r>
       <r>   -15.1716     0.0000   172.0000 </r>
       <r>   -14.9883     0.0000   172.0000 </r>
       <r>   -14.8049     0.0000   172.0000 </r>
       <r>   -14.6216     0.0000   172.0000 </r>
       <r>   -14.4383     0.0000   172.0000 </r>
       <r>   -14.2549     0.0000   172.0000 </r>
       <r>   -14.0716     0.0000   172.0000 </r>
       <r>   -13.8883     0.0000   172.0000 </r>
       <r>   -13.7049     0.0000   172.0000 </r>
       <r>   -13.5216     0.0000   172.0000 </r>
       <r>   -13.3382    35.6856   175.9432 </r>
       <r>   -13.1549     0.0000   184.0000 </r>
       <r>   -12.9716     0.0000   188.0000 </r>
       <r>   -12.7882     0.0000   196.0000 </r>
       <r>   -12.6049     0.0000   204.0000 </r>
       <r>   -12.4216     0.0000   204.0000 </r>
       <r>   -12.2382     0.0000   204.0000 </r>
       <r>   -12.0549     0.0000   204.0000 </r>
       <r>   -11.8715     0.0000   204.0000 </r>
       <r>   -11.6882     0.0000   204.0000 </r>
       <r>   -11.5049     0.0000   204.0000 </r>
       <r>   -11.3215     0.0000   204.0000 </r>
       <r>   -11.1382     0.0000   204.0000 </r>
       <r>   -10.9549     0.0000   204.0000 </r>
       <r>   -10.7715     0.0000   204.0000 </r>
       <r>   -10.5882     0.0000   204.0000 </r>
       <r>   -10.4049     0.0000   204.0000 </r>
       <r>   -10.2215     0.0000   204.0000 </r>
       <r>   -10.0382     0.0000   204.0000 </r>
       <r>    -9.8548     0.0000   204.0000 </r>
       <r>    -9.6715     0.0000   204.0000 </r>
       <r>    -9.4882    11.1669   204.7559 </r>
       <r>    -9.3048     7.1983   206.1565 </r>
       <r>    -9.1215     4.3653   207.8597 </r>
       <r>    -8.9382    11.6678   208.7356 </r>
       <r>    -8.7548     0.0000   212.0000 </r>
       <r>    -8.5715    16.3170   216.2218 </r>
       <r>    -8.3881     7.1989   219.7616 </r>
       <r>    -8.2048    48.1376   222.4620 </r>
       <r>    -8.0215    27.4181   229.2563 </r>
       <r>    -7.8381     8.8885   232.1629 </r>
       <r>    -7.6548     9.0421   235.8037 </r>
       <r>    -7.4715     0.0000   236.0000 </r>
       <r>    -7.2881     0.0000   236.0000 </r>
       <r>    -7.1048     0.0000   236.0000 </r>
       <r>    -6.9214     0.0000   236.0000 </r>
       <r>    -6.7381     0.0000   236.0000 </r>
       <r>    -6.5548     0.0000   236.0000 </r>
       <r>    -6.3714    26.0467   237.8651 </r>
       <r>    -6.1881    23.6734   243.0226 </r>
       <r>    -6.0048    24.4058   245.6303 </r>
       <r>    -5.8214    20.6498   251.0830 </r>
       <r>    -5.6381    24.2528   255.0701 </r>
       <r>    -5.4548    11.4806   258.6036 </r>
       <r>    -5.2714     1.9119   260.0498 </r>
       <r>    -5.0881    10.9093   261.0276 </r>
       <r>    -4.9047     8.3253   263.4213 </r>
       <r>    -4.7214     4.7613   264.6472 </r>
       <r>    -4.5381     8.1600   265.8154 </r>
       <r>    -4.3547     4.3648   267.3638 </r>
       <r>    -4.1714     1.6328   267.8191 </r>
       <r>    -3.9881     0.2707   267.9918 </r>
       <r>    -3.8047     0.0000   268.0000 </r>
       <r>    -3.6214     0.0000   268.0000 </r>
       <r>    -3.4380     0.0000   268.0000 </r>
       <r>    -3.2547     0.0000   268.0000 </r>
       <r>    -3.0714     0.0000   268.0000 </r>
       <r>    -2.8880     0.0000   268.0000 </r>
       <r>    -2.7047     0.0000   268.0000 </r>
       <r>    -2.5214     0.0000   268.0000 </r>
       <r>    -2.3380     0.0000   268.0000 </r>
       <r>    -2.1547     0.0000   268.0000 </r>
       <r>    -1.9714     0.0000   268.0000 </r>
       <r>    -1.7880     0.0000   268.0000 </r>
       <r>    -1.6047     0.0000   268.0000 </r>
       <r>    -1.4213     4.5931   268.2704 </r>
       <r>    -1.2380     8.3377   269.5429 </r>
       <r>    -1.0547     7.8072   270.9436 </r>
       <r>    -0.8713    15.3978   273.0498 </r>
       <r>    -0.6880    11.0664   275.3278 </r>
       <r>    -0.5047    28.7748   279.0193 </r>
       <r>    -0.3213    33.6577   284.8177 </r>
       <r>    -0.1380    36.4547   291.5436 </r>
       <r>     0.0454    34.1383   299.2454 </r>
       <r>     0.2287    36.2921   306.2906 </r>
       <r>     0.4120    31.1391   312.6568 </r>
       <r>     0.5954    48.2263   319.3406 </r>
       <r>     0.7787    32.2834   327.1849 </r>
       <r>     0.9620    45.4929   335.9027 </r>
       <r>     1.1454    38.5003   343.9621 </r>
       <r>     1.3287    39.1441   352.2622 </r>
       <r>     1.5121    39.7208   359.9328 </r>
       <r>     1.6954    34.5908   367.0807 </r>
       <r>     1.8787    44.2530   375.4165 </r>
       <r>     2.0621    57.6579   385.8150 </r>
       <r>     2.2454    47.4568   396.3879 </r>
       <r>     2.4287    48.7850   407.5332 </r>
       <r>     2.6121    67.4867   418.4343 </r>
       <r>     2.7954    72.4773   430.6113 </r>
       <r>     2.9787    41.9116   440.0627 </r>
       <r>     3.1621    36.0895   446.8522 </r>
       <r>     3.3454    23.4265   453.9696 </r>
       <r>     3.5288    14.4793   457.5626 </r>
       <r>     3.7121     6.3128   459.4685 </r>
       <r>     3.8954     0.4767   459.9899 </r>
       <r>     4.0788     0.0000   460.0000 </r>
       <r>     4.2621     0.0000   460.0000 </r>
       <r>     4.4454     0.0000   460.0000 </r>
       <r>     4.6288     0.0000   460.0000 </r>
       <r>     4.8121     0.0000   460.0000 </r>
       <r>     4.9955     0.3922   460.0064 </r>
       <r>     5.1788     6.3418   460.5741 </r>
       <r>     5.3621    11.0139   462.3009 </r>
       <r>     5.5455    14.6277   464.3539 </r>
       <r>     5.7288    16.4965   468.6385 </r>
       <r>     5.9121    13.9782   471.4070 </r>
       <r>     6.0955    13.8488   473.9244 </r>
       <r>     6.2788    15.1651   476.5759 </r>
       <r>     6.4621    17.2820   479.5298 </r>
       <r>     6.6455    19.9378   482.9449 </r>
       <r>     6.8288    21.4168   486.8302 </r>
       <r>     7.0122    21.8781   490.6771 </r>
       <r>     7.1955    36.7196   495.2040 </r>
       <r>     7.3788    31.3781   501.4723 </r>
       <r>     7.5622    31.2959   507.2426 </r>
       <r>     7.7455    33.0175   513.8458 </r>
       <r>     7.9288    28.2109   519.4494 </r>
       <r>     8.1122    28.4500   524.7047 </r>
       <r>     8.2955    30.3553   529.9424 </r>
       <r>     8.4789    35.0143   536.4460 </r>
       <r>     8.6622    32.3246   542.2587 </r>
       <r>     8.8455    23.6920   547.3697 </r>
       <r>     9.0289    21.6574   551.4447 </r>
       <r>     9.2122     8.3249   554.6022 </r>
       <r>     9.3955     5.5863   555.8334 </r>
       <r>     9.5789    12.4324   557.6045 </r>
       <r>     9.7622     6.6205   559.4892 </r>
       <r>     9.9456     0.3997   559.9911 </r>
       <r>    10.1289     0.0000   560.0000 </r>
       <r>    10.3122     0.0000   560.0000 </r>
       <r>    10.4956     0.0000   560.0000 </r>
       <r>    10.6789     0.0000   560.0000 </r>
       <r>    10.8622     0.0000   560.0000 </r>
       <r>    11.0456     0.0000   560.0000 </r>
       <r>    11.2289     0.0000   560.0000 </r>
       <r>    11.4122     0.0000   560.0000 </r>
       <r>    11.5956     0.0000   560.0000 </r>
       <r>    11.7789     0.0000   560.0000 </r>
       <r>    11.9623     0.0000   560.0000 </r>
       <r>    12.1456     0.0000   560.0000 </r>
       <r>    12.3289     0.0000   560.0000 </r>
       <r>    12.5123     0.0000   560.0000 </r>
      </set>
     </set>
    </array>
   </total>
  </dos>
 </calculation>
 <structure name="finalpos" >
  <crystal>
   <varray name="basis" >
    <v>      11.27831978      -0.00816403       0.02644837 </v>
    <v>      -0.00705670       9.68834552       0.00098998 </v>
    <v>       0.02634789       0.00119374      11.19788695 </v>
   </varray>
   <i name="volume">   1223.56620031 </i>
   <varray name="rec_basis" >
    <v>       0.08866623       0.00006460      -0.00020863 </v>
    <v>       0.00007474       0.10321685      -0.00001118 </v>
    <v>      -0.00020943      -0.00000928       0.08930306 </v>
   </varray>
  </crystal>
  <varray name="positions" >
   <v>       0.26170183      -0.00926117       0.44734009 </v>
   <v>       0.22594427       0.98926018       0.19309296 </v>
   <v>       0.62395778      -0.00517054       0.43535734 </v>
   <v>       0.52535131       0.98700059       0.18045521 </v>
   <v>       0.12610453      -0.00460161       0.93961516 </v>
   <v>       0.48751605      -0.00774541       0.92606022 </v>
   <v>       0.88272432      -0.00384180       0.45502235 </v>
   <v>       0.87520981      -0.00173930       0.18767268 </v>
   <v>       0.09658844      -0.00258423       0.68895009 </v>
   <v>       0.86741900      -0.00376104       0.92024440 </v>
   <v>       0.65383332      -0.00323504       0.68608591 </v>
   <v>      -0.00441719       0.31028169       0.06077461 </v>
   <v>       0.24931209       0.69753212       0.06108609 </v>
   <v>       0.25510329       0.31054531       0.31338686 </v>
   <v>       0.50051011       0.69695396       0.31428417 </v>
   <v>       0.49493903       0.30983927       0.06203145 </v>
   <v>       0.74962889       0.68717967       0.06101903 </v>
   <v>       0.75460127       0.30987166       0.31441325 </v>
   <v>       0.00034195       0.68746924       0.31436082 </v>
   <v>       0.00291073       0.30819584       0.56162973 </v>
   <v>       0.24256400       0.69358272       0.56915444 </v>
   <v>       0.24058178       0.30007511       0.81178288 </v>
   <v>       0.50739551       0.69297602       0.80637125 </v>
   <v>       0.50951249       0.29877214       0.56342608 </v>
   <v>       0.74742549       0.68406276       0.55697256 </v>
   <v>       0.74714675       0.30795446       0.81360833 </v>
   <v>       0.00239901       0.68454905       0.81825371 </v>
   <v>       0.24607223       0.33658628       0.06337769 </v>
   <v>      -0.00219264       0.63661077       0.06320091 </v>
   <v>       0.50353292       0.33633794       0.31188348 </v>
   <v>       0.24921827       0.73310068       0.31566878 </v>
   <v>       0.74889556       0.34808965       0.06286261 </v>
   <v>       0.50092448       0.73211411       0.05976638 </v>
   <v>       0.00069191       0.34874089       0.31237834 </v>
   <v>       0.75212410       0.63618300       0.31207545 </v>
   <v>       0.24563888       0.33862485       0.56407062 </v>
   <v>      -0.00236781       0.64862598       0.56241305 </v>
   <v>       0.50373242       0.33717213       0.81115337 </v>
   <v>       0.24903252       0.64947655       0.81399016 </v>
   <v>       0.75087855       0.36235947       0.56225769 </v>
   <v>       0.50107214       0.64883396       0.56145848 </v>
   <v>       0.99854140       0.36261820       0.81302889 </v>
   <v>       0.75244887       0.64847102       0.81294941 </v>
   <v>       0.49808166       0.10253538       0.05715623 </v>
   <v>       0.21970261       0.90259598       0.04925967 </v>
   <v>       0.25109992       0.10330264       0.31785599 </v>
   <v>      -0.04064451       0.89776781       0.31716473 </v>
   <v>       0.96542324       0.09300547       0.05044058 </v>
   <v>       0.79071270       0.89768938       0.05823226 </v>
   <v>       0.78490084       0.09275664       0.32476965 </v>
   <v>       0.53078637       0.90205559       0.32526653 </v>
   <v>       0.55890779       0.09673256       0.56664598 </v>
   <v>       0.21166437       0.90128020       0.58478772 </v>
   <v>       0.19134865       0.09778189       0.80845656 </v>
   <v>      -0.00013617       0.90600600       0.82450313 </v>
   <v>      -0.00898161       0.09112597       0.56858289 </v>
   <v>       0.75027746       0.90555229       0.55066828 </v>
   <v>       0.75920252       0.09092890       0.80661217 </v>
   <v>       0.53849454       0.90066621       0.79034066 </v>
  </varray>
 </structure>
</modeling>
