<?xml version="1.0" encoding="ISO-8859-1"?>
<modeling>
 <generator>
  <i name="program" type="string">vasp </i>
  <i name="version" type="string">5.4.4.18Apr17-6-g9f103f2a35  </i>
  <i name="subversion" type="string">(build Jul 31 2017 11:33:29) complex            parallel </i>
  <i name="platform" type="string">LinuxIFC </i>
  <i name="date" type="string">2021 09 29 </i>
  <i name="time" type="string">15:36:25 </i>
 </generator>
 <incar>
  <i type="string" name="SYSTEM"> La2O2S</i>
  <i type="string" name="PREC">normal</i>
  <i type="int" name="NELMIN">     4</i>
  <i type="int" name="IBRION">     2</i>
  <i type="int" name="NFREE">    10</i>
  <i name="EDIFF">      0.00000100</i>
  <i name="EDIFFG">     -0.01000000</i>
  <i type="int" name="NSW">     1</i>
  <i type="int" name="ISIF">     2</i>
  <i name="ENCUT">    600.00000000</i>
  <i name="ENAUG">    900.00000000</i>
  <i type="int" name="ISMEAR">    -5</i>
  <i type="logical" name="LWAVE"> F  </i>
  <i type="logical" name="LCHARG"> F  </i>
  <v type="int" name="KPOINT_BSE">    -1     0     0     0</v>
 </incar>
 <structure name="primitive_cell" >
  <crystal>
   <varray name="basis" >
    <v>      11.17850000       0.00000000       0.00000000 </v>
    <v>       0.00000000       9.57460000       0.00000000 </v>
    <v>       0.00000000       0.00000000      11.18240000 </v>
   </varray>
   <i name="volume">   1196.84853820 </i>
   <varray name="rec_basis" >
    <v>       0.08945744       0.00000000       0.00000000 </v>
    <v>       0.00000000       0.10444301       0.00000000 </v>
    <v>       0.00000000       0.00000000       0.08942624 </v>
   </varray>
  </crystal>
  <varray name="positions" >
   <v>       0.37539000       0.00017000       0.43687000 </v>
   <v>      -0.49987000      -0.07798000       0.31246000 </v>
   <v>       0.25013000       0.07798000       0.31246000 </v>
   <v>       0.49987000       0.07798000      -0.43754000 </v>
   <v>       0.24987000      -0.07798000      -0.43754000 </v>
   <v>      -0.37461000      -0.00016000       0.43687000 </v>
   <v>       0.37461000       0.00017000      -0.31313000 </v>
   <v>       0.49987000      -0.29519000       0.31282000 </v>
   <v>       0.24987000       0.29519000       0.31282000 </v>
   <v>      -0.49987000       0.29519000      -0.43719000 </v>
   <v>       0.25013000      -0.29519000      -0.43719000 </v>
   <v>       0.49995000       0.32677000       0.31286000 </v>
   <v>       0.24995000      -0.32677000       0.31286000 </v>
   <v>      -0.49995000      -0.32677000      -0.43714000 </v>
   <v>       0.25005000       0.32677000      -0.43714000 </v>
   <v>      -0.37539000      -0.00016000       0.18687000 </v>
   <v>      -0.37539000      -0.00016000      -0.31313000 </v>
   <v>       0.12461000      -0.00016000      -0.31313000 </v>
   <v>       0.12461000      -0.00016000       0.18687000 </v>
   <v>       0.49987000       0.07798000       0.06246000 </v>
   <v>      -0.24987000       0.07798000       0.31246000 </v>
   <v>      -0.25013000      -0.07798000      -0.43754000 </v>
   <v>       0.24987000      -0.07798000       0.06246000 </v>
   <v>       0.00013000      -0.07798000       0.31246000 </v>
   <v>      -0.49987000      -0.07798000      -0.18754000 </v>
   <v>      -0.00013000       0.07798000      -0.43754000 </v>
   <v>       0.25013000       0.07798000      -0.18754000 </v>
   <v>      -0.49987000       0.29519000       0.06281000 </v>
   <v>      -0.25013000       0.29519000       0.31282000 </v>
   <v>       0.25013000      -0.29519000       0.06281000 </v>
   <v>      -0.24987000      -0.29519000      -0.43719000 </v>
   <v>      -0.00013000      -0.29519000       0.31282000 </v>
   <v>       0.00013000       0.29519000      -0.43719000 </v>
   <v>       0.49987000      -0.29519000      -0.18718000 </v>
   <v>       0.24987000       0.29519000      -0.18718000 </v>
   <v>      -0.49995000      -0.32677000       0.06286000 </v>
   <v>       0.25005000       0.32677000       0.06286000 </v>
   <v>      -0.25005000      -0.32677000       0.31286000 </v>
   <v>      -0.24995000       0.32677000      -0.43714000 </v>
   <v>      -0.00005000       0.32677000       0.31286000 </v>
   <v>       0.00005000      -0.32677000      -0.43714000 </v>
   <v>       0.49995000       0.32677000      -0.18714000 </v>
   <v>       0.24995000      -0.32677000      -0.18714000 </v>
   <v>      -0.12461000       0.00017000       0.43687000 </v>
   <v>       0.37539000       0.00017000      -0.06313000 </v>
   <v>      -0.25013000      -0.07798000       0.06246000 </v>
   <v>      -0.00013000       0.07798000       0.06246000 </v>
   <v>      -0.24987000       0.07798000      -0.18754000 </v>
   <v>       0.00013000      -0.07798000      -0.18754000 </v>
   <v>      -0.12539000       0.00017000      -0.31313000 </v>
   <v>      -0.24987000      -0.29519000       0.06281000 </v>
   <v>       0.00013000       0.29519000       0.06281000 </v>
   <v>      -0.25013000       0.29519000      -0.18718000 </v>
   <v>      -0.00013000      -0.29519000      -0.18718000 </v>
   <v>      -0.24995000       0.32677000       0.06286000 </v>
   <v>       0.00005000      -0.32677000       0.06286000 </v>
   <v>      -0.25005000      -0.32677000      -0.18714000 </v>
   <v>      -0.00005000       0.32677000      -0.18714000 </v>
   <v>      -0.12461000       0.00017000      -0.06313000 </v>
  </varray>
 </structure>
 <varray name="primitive_index" >
  <v type="int" >        1 </v>
  <v type="int" >       51 </v>
  <v type="int" >       46 </v>
  <v type="int" >       52 </v>
  <v type="int" >       53 </v>
  <v type="int" >        2 </v>
  <v type="int" >        5 </v>
  <v type="int" >       15 </v>
  <v type="int" >       14 </v>
  <v type="int" >       24 </v>
  <v type="int" >       21 </v>
  <v type="int" >       30 </v>
  <v type="int" >       31 </v>
  <v type="int" >       41 </v>
  <v type="int" >       36 </v>
  <v type="int" >        8 </v>
  <v type="int" >       11 </v>
  <v type="int" >        4 </v>
  <v type="int" >        7 </v>
  <v type="int" >       44 </v>
  <v type="int" >       50 </v>
  <v type="int" >       57 </v>
  <v type="int" >       45 </v>
  <v type="int" >       47 </v>
  <v type="int" >       59 </v>
  <v type="int" >       56 </v>
  <v type="int" >       54 </v>
  <v type="int" >       16 </v>
  <v type="int" >       18 </v>
  <v type="int" >       13 </v>
  <v type="int" >       25 </v>
  <v type="int" >       19 </v>
  <v type="int" >       20 </v>
  <v type="int" >       23 </v>
  <v type="int" >       22 </v>
  <v type="int" >       33 </v>
  <v type="int" >       28 </v>
  <v type="int" >       35 </v>
  <v type="int" >       40 </v>
  <v type="int" >       34 </v>
  <v type="int" >       37 </v>
  <v type="int" >       38 </v>
  <v type="int" >       39 </v>
  <v type="int" >        3 </v>
  <v type="int" >        9 </v>
  <v type="int" >       49 </v>
  <v type="int" >       48 </v>
  <v type="int" >       58 </v>
  <v type="int" >       55 </v>
  <v type="int" >        6 </v>
  <v type="int" >       17 </v>
  <v type="int" >       12 </v>
  <v type="int" >       26 </v>
  <v type="int" >       27 </v>
  <v type="int" >       32 </v>
  <v type="int" >       29 </v>
  <v type="int" >       43 </v>
  <v type="int" >       42 </v>
  <v type="int" >       10 </v>
 </varray>
 <kpoints>
  <generation param="Gamma">
   <v type="int" name="divisions">       2        2        2 </v>
   <v name="usershift">      0.00000000       0.00000000       0.00000000 </v>
   <v name="genvec1">      0.50000000       0.00000000       0.00000000 </v>
   <v name="genvec2">      0.00000000       0.50000000       0.00000000 </v>
   <v name="genvec3">      0.00000000       0.00000000       0.50000000 </v>
   <v name="shift">      0.00000000       0.00000000       0.00000000 </v>
  </generation>
  <varray name="kpointlist" >
   <v>       0.00000000       0.00000000       0.00000000 </v>
   <v>       0.50000000       0.00000000       0.00000000 </v>
   <v>       0.00000000       0.50000000       0.00000000 </v>
   <v>       0.50000000       0.50000000       0.00000000 </v>
   <v>       0.00000000       0.00000000       0.50000000 </v>
   <v>       0.50000000       0.00000000       0.50000000 </v>
   <v>       0.00000000       0.50000000       0.50000000 </v>
   <v>       0.50000000       0.50000000       0.50000000 </v>
  </varray>
  <varray name="weights" >
   <v>       0.12500000 </v>
   <v>       0.12500000 </v>
   <v>       0.12500000 </v>
   <v>       0.12500000 </v>
   <v>       0.12500000 </v>
   <v>       0.12500000 </v>
   <v>       0.12500000 </v>
   <v>       0.12500000 </v>
  </varray>
  <varray name="tetrahedronlist"  type="int" >
   <v type="int" >        2        1        2        4        5 </v>
   <v type="int" >        2        1        3        4        5 </v>
   <v type="int" >        2        3        4        5        7 </v>
   <v type="int" >        2        2        4        5        6 </v>
   <v type="int" >        2        4        5        6        8 </v>
   <v type="int" >        2        4        5        7        8 </v>
   <v type="int" >        2        1        2        3        6 </v>
   <v type="int" >        2        2        3        4        6 </v>
   <v type="int" >        2        3        4        6        8 </v>
   <v type="int" >        2        1        3        5        6 </v>
   <v type="int" >        2        3        5        6        7 </v>
   <v type="int" >        2        3        6        7        8 </v>
   <v type="int" >        2        2        3        4        7 </v>
   <v type="int" >        2        1        2        3        7 </v>
   <v type="int" >        2        1        2        5        7 </v>
   <v type="int" >        2        2        4        7        8 </v>
   <v type="int" >        2        2        6        7        8 </v>
   <v type="int" >        2        2        5        6        7 </v>
   <v type="int" >        2        1        3        4        8 </v>
   <v type="int" >        2        1        2        4        8 </v>
   <v type="int" >        2        1        2        6        8 </v>
   <v type="int" >        2        1        3        7        8 </v>
   <v type="int" >        2        1        5        7        8 </v>
   <v type="int" >        2        1        5        6        8 </v>
  </varray>
  <i name="volumeweight">      0.02083333 </i>
 </kpoints>
 <parameters>
  <separator name="general" >
   <i type="string" name="SYSTEM">La2O2S</i>
   <i type="logical" name="LCOMPAT"> F  </i>
  </separator>
  <separator name="electronic" >
   <i type="string" name="PREC">normal</i>
   <i name="ENMAX">    600.00000000</i>
   <i name="ENAUG">    900.00000000</i>
   <i name="EDIFF">      0.00000100</i>
   <i type="int" name="IALGO">    38</i>
   <i type="int" name="IWAVPR">    11</i>
   <i type="int" name="NBANDS">   280</i>
   <i name="NELECT">    460.00000000</i>
   <i type="int" name="TURBO">     0</i>
   <i type="int" name="IRESTART">     0</i>
   <i type="int" name="NREBOOT">     0</i>
   <i type="int" name="NMIN">     0</i>
   <i name="EREF">      0.00000000</i>
   <separator name="electronic smearing" >
    <i type="int" name="ISMEAR">    -5</i>
    <i name="SIGMA">      0.20000000</i>
    <i name="KSPACING">      0.50000000</i>
    <i type="logical" name="KGAMMA"> T  </i>
   </separator>
   <separator name="electronic projectors" >
    <i type="logical" name="LREAL"> F  </i>
    <v name="ROPT">      0.00000000      0.00000000      0.00000000      0.00000000      0.00000000</v>
    <i type="int" name="LMAXPAW">  -100</i>
    <i type="int" name="LMAXMIX">     2</i>
    <i type="logical" name="NLSPLINE"> F  </i>
   </separator>
   <separator name="electronic startup" >
    <i type="int" name="ISTART">     0</i>
    <i type="int" name="ICHARG">     2</i>
    <i type="int" name="INIWAV">     1</i>
   </separator>
   <separator name="electronic spin" >
    <i type="int" name="ISPIN">     1</i>
    <i type="logical" name="LNONCOLLINEAR"> F  </i>
    <v name="MAGMOM">      1.00000000      1.00000000      1.00000000      1.00000000      1.00000000      1.00000000      1.00000000      1.00000000      1.00000000      1.00000000      1.00000000      1.00000000      1.00000000      1.00000000      1.00000000      1.00000000      1.00000000      1.00000000      1.00000000      1.00000000
      1.00000000      1.00000000      1.00000000      1.00000000      1.00000000      1.00000000      1.00000000      1.00000000      1.00000000      1.00000000      1.00000000      1.00000000      1.00000000      1.00000000      1.00000000      1.00000000      1.00000000      1.00000000      1.00000000      1.00000000
      1.00000000      1.00000000      1.00000000      1.00000000      1.00000000      1.00000000      1.00000000      1.00000000      1.00000000      1.00000000      1.00000000      1.00000000      1.00000000      1.00000000      1.00000000      1.00000000      1.00000000      1.00000000      1.00000000</v>
    <i name="NUPDOWN">     -1.00000000</i>
    <i type="logical" name="LSORBIT"> F  </i>
    <v name="SAXIS">      0.00000000      0.00000000      1.00000000</v>
    <i type="logical" name="LSPIRAL"> F  </i>
    <v name="QSPIRAL">      0.00000000      0.00000000      0.00000000</v>
    <i type="logical" name="LZEROZ"> F  </i>
   </separator>
   <separator name="electronic exchange-correlation" >
    <i type="logical" name="LASPH"> F  </i>
    <i type="logical" name="LMETAGGA"> F  </i>
   </separator>
   <separator name="electronic convergence" >
    <i type="int" name="NELM">    60</i>
    <i type="int" name="NELMDL">    -5</i>
    <i type="int" name="NELMIN">     4</i>
    <i name="ENINI">    600.00000000</i>
    <separator name="electronic convergence detail" >
     <i type="logical" name="LDIAG"> T  </i>
     <i type="logical" name="LSUBROT"> F  </i>
     <i name="WEIMIN">      0.00100000</i>
     <i name="EBREAK">      0.00000000</i>
     <i name="DEPER">      0.30000000</i>
     <i type="int" name="NRMM">     4</i>
     <i name="TIME">      0.40000000</i>
    </separator>
   </separator>
   <separator name="electronic mixer" >
    <i name="AMIX">      0.40000000</i>
    <i name="BMIX">      1.00000000</i>
    <i name="AMIN">      0.10000000</i>
    <i name="AMIX_MAG">      1.60000000</i>
    <i name="BMIX_MAG">      1.00000000</i>
    <separator name="electronic mixer details" >
     <i type="int" name="IMIX">     4</i>
     <i type="logical" name="MIXFIRST"> F  </i>
     <i type="int" name="MAXMIX">   -45</i>
     <i name="WC">    100.00000000</i>
     <i type="int" name="INIMIX">     1</i>
     <i type="int" name="MIXPRE">     1</i>
     <i type="int" name="MREMOVE">     5</i>
    </separator>
   </separator>
   <separator name="electronic dipolcorrection" >
    <i type="logical" name="LDIPOL"> F  </i>
    <i type="logical" name="LMONO"> F  </i>
    <i type="int" name="IDIPOL">     0</i>
    <i name="EPSILON">      1.00000000</i>
    <v name="DIPOL">   -100.00000000   -100.00000000   -100.00000000</v>
    <i name="EFIELD">      0.00000000</i>
   </separator>
  </separator>
  <separator name="grids" >
   <i type="int" name="NGX">    70</i>
   <i type="int" name="NGY">    60</i>
   <i type="int" name="NGZ">    70</i>
   <i type="int" name="NGXF">   140</i>
   <i type="int" name="NGYF">   120</i>
   <i type="int" name="NGZF">   140</i>
   <i type="logical" name="ADDGRID"> F  </i>
  </separator>
  <separator name="ionic" >
   <i type="int" name="NSW">     1</i>
   <i type="int" name="IBRION">     2</i>
   <i type="int" name="MDALGO">     0</i>
   <i type="int" name="ISIF">     2</i>
   <i name="PSTRESS">      0.00000000</i>
   <i name="EDIFFG">     -0.01000000</i>
   <i type="int" name="NFREE">    10</i>
   <i name="POTIM">      0.50000000</i>
   <i name="SMASS">     -3.00000000</i>
   <i name="SCALEE">      1.00000000</i>
  </separator>
  <separator name="ionic md" >
   <i name="TEBEG">      0.00010000</i>
   <i name="TEEND">      0.00010000</i>
   <i type="int" name="NBLOCK">     1</i>
   <i type="int" name="KBLOCK">     1</i>
   <i type="int" name="NPACO">   256</i>
   <i name="APACO">     16.00000000</i>
  </separator>
  <separator name="symmetry" >
   <i type="int" name="ISYM">     2</i>
   <i name="SYMPREC">      0.00001000</i>
  </separator>
  <separator name="dos" >
   <i type="int" name="LORBIT">     0</i>
   <v name="RWIGS">     -1.00000000     -1.00000000     -1.00000000     -1.00000000     -1.00000000</v>
   <i type="int" name="NEDOS">   301</i>
   <i name="EMIN">     10.00000000</i>
   <i name="EMAX">    -10.00000000</i>
   <i name="EFERMI">      0.00000000</i>
  </separator>
  <separator name="writing" >
   <i type="int" name="NWRITE">     2</i>
   <i type="logical" name="LWAVE"> F  </i>
   <i type="logical" name="LDOWNSAMPLE"> F  </i>
   <i type="logical" name="LCHARG"> F  </i>
   <i type="logical" name="LPARD"> F  </i>
   <i type="logical" name="LVTOT"> F  </i>
   <i type="logical" name="LVHAR"> F  </i>
   <i type="logical" name="LELF"> F  </i>
   <i type="logical" name="LOPTICS"> F  </i>
   <v name="STM">      0.00000000      0.00000000      0.00000000      0.00000000      0.00000000      0.00000000      0.00000000</v>
  </separator>
  <separator name="performance" >
   <i type="int" name="NPAR">    28</i>
   <i type="int" name="NSIM">     4</i>
   <i type="int" name="NBLK">    -1</i>
   <i type="logical" name="LPLANE"> T  </i>
   <i type="logical" name="LSCALAPACK"> T  </i>
   <i type="logical" name="LSCAAWARE"> F  </i>
   <i type="logical" name="LSCALU"> F  </i>
   <i type="logical" name="LASYNC"> F  </i>
   <i type="logical" name="LORBITALREAL"> F  </i>
  </separator>
  <separator name="miscellaneous" >
   <i type="int" name="IDIOT">     3</i>
   <i type="int" name="ISPECIAL">     0</i>
   <i type="logical" name="LMUSIC"> F  </i>
   <v name="POMASS">      7.01000000     24.30500000    208.98000000     32.06600000     16.00000000</v>
   <v name="DARWINR">      0.00000000      0.00000000      0.00000000      0.00000000      0.00000000</v>
   <v name="DARWINV">      1.00000000      1.00000000      1.00000000      1.00000000      1.00000000</v>
   <i type="logical" name="LCORR"> T  </i>
  </separator>
  <i type="logical" name="GGA_COMPAT"> T  </i>
  <i type="logical" name="LBERRY"> F  </i>
  <i type="int" name="ICORELEVEL">     0</i>
  <i type="logical" name="LDAU"> F  </i>
  <i type="int" name="I_CONSTRAINED_M">     0</i>
  <separator name="electronic exchange-correlation" >
   <i type="string" name="GGA">--</i>
   <i type="int" name="VOSKOWN">     0</i>
   <i type="logical" name="LHFCALC"> F  </i>
   <i type="string" name="PRECFOCK"></i>
   <i type="logical" name="LSYMGRAD"> F  </i>
   <i type="logical" name="LHFONE"> F  </i>
   <i type="logical" name="LRHFCALC"> F  </i>
   <i type="logical" name="LTHOMAS"> F  </i>
   <i type="logical" name="LMODELHF"> F  </i>
   <i name="ENCUT4O">     -1.00000000</i>
   <i type="int" name="EXXOEP">     0</i>
   <i type="int" name="FOURORBIT">     0</i>
   <i name="AEXX">      0.00000000</i>
   <i name="HFALPHA">      0.00000000</i>
   <i name="MCALPHA">      0.00000000</i>
   <i name="ALDAX">      1.00000000</i>
   <i name="AGGAX">      1.00000000</i>
   <i name="ALDAC">      1.00000000</i>
   <i name="AGGAC">      1.00000000</i>
   <i type="int" name="NKREDX">     1</i>
   <i type="int" name="NKREDY">     1</i>
   <i type="int" name="NKREDZ">     1</i>
   <i type="logical" name="SHIFTRED"> F  </i>
   <i type="logical" name="ODDONLY"> F  </i>
   <i type="logical" name="EVENONLY"> F  </i>
   <i type="int" name="LMAXFOCK">     0</i>
   <i type="int" name="NMAXFOCKAE">     0</i>
   <i type="logical" name="LFOCKAEDFT"> F  </i>
   <i name="HFSCREEN">      0.00000000</i>
   <i name="HFSCREENC">      0.00000000</i>
   <i type="int" name="NBANDSGWLOW">     0</i>
  </separator>
  <separator name="vdW DFT" >
   <i type="logical" name="LUSE_VDW"> F  </i>
   <i name="Zab_VDW">     -0.84910000</i>
   <i name="PARAM1">      0.12340000</i>
   <i name="PARAM2">      1.00000000</i>
   <i name="PARAM3">      0.00000000</i>
  </separator>
  <separator name="model GW" >
   <i type="int" name="MODEL_GW">     0</i>
   <i name="MODEL_EPS0">     12.17134107</i>
   <i name="MODEL_ALPHA">      1.00000000</i>
  </separator>
  <separator name="linear response parameters" >
   <i type="logical" name="LEPSILON"> F  </i>
   <i type="logical" name="LRPA"> F  </i>
   <i type="logical" name="LNABLA"> F  </i>
   <i type="logical" name="LVEL"> F  </i>
   <i type="int" name="KINTER">     0</i>
   <i name="CSHIFT">      0.10000000</i>
   <i name="OMEGAMAX">     -1.00000000</i>
   <i name="DEG_THRESHOLD">      0.00200000</i>
   <i name="RTIME">     -0.10000000</i>
   <i name="WPLASMAI">      0.00000000</i>
   <v name="DFIELD">      0.00000000      0.00000000      0.00000000</v>
   <v name="WPLASMA">      0.00000000      0.00000000      0.00000000      0.00000000      0.00000000      0.00000000      0.00000000      0.00000000      0.00000000</v>
  </separator>
  <separator name="orbital magnetization" >
   <i type="logical" name="NUCIND"> F  </i>
   <v name="MAGPOS">      0.00000000      0.00000000      0.00000000</v>
   <i type="logical" name="LNICSALL"> T  </i>
   <i type="logical" name="ORBITALMAG"> F  </i>
   <i type="logical" name="LMAGBLOCH"> F  </i>
   <i type="logical" name="LCHIMAG"> F  </i>
   <i type="logical" name="LGAUGE"> T  </i>
   <i type="int" name="MAGATOM">     0</i>
   <v name="MAGDIPOL">      0.00000000      0.00000000      0.00000000</v>
   <v name="AVECCONST">      0.00000000      0.00000000      0.00000000</v>
  </separator>
  <separator name="response functions" >
   <i type="logical" name="LADDER"> F  </i>
   <i type="logical" name="LRPAFORCE"> F  </i>
   <i type="logical" name="LFXC"> F  </i>
   <i type="logical" name="LHARTREE"> T  </i>
   <i type="int" name="IBSE">     0</i>
   <v type="int" name="KPOINT">    -1     0     0     0</v>
   <i type="logical" name="LTCTE"> F  </i>
   <i type="logical" name="LTETE"> F  </i>
   <i type="logical" name="LTRIPLET"> F  </i>
   <i type="logical" name="LFXCEPS"> F  </i>
   <i type="logical" name="LFXHEG"> F  </i>
   <i type="int" name="NATURALO">     2</i>
   <i type="logical" name="L2ORDER"> F  </i>
   <i type="logical" name="LMP2LT"> F  </i>
   <i type="logical" name="LUSEW"> F  </i>
   <i name="ENCUTGW">     -2.00000000</i>
   <i name="ENCUTGWSOFT">     -2.00000000</i>
   <i name="ENCUTLF">     -1.00000000</i>
   <i type="int" name="LMAXMP2">    -1</i>
   <i name="SCISSOR">      0.00000000</i>
   <i type="int" name="NOMEGA">     0</i>
   <i type="int" name="NOMEGAR">     0</i>
   <i type="int" name="NBANDSGW">    -1</i>
   <i type="int" name="NBANDSO">    -1</i>
   <i type="int" name="NBANDSV">    -1</i>
   <i type="int" name="NELM">     1</i>
   <i type="int" name="NELMHF">     1</i>
   <i type="int" name="DIM">     3</i>
   <i type="int" name="ANTIRES">     0</i>
   <i name="OMEGAMAX">    -30.00000000</i>
   <i name="OMEGAMIN">    -30.00000000</i>
   <i name="OMEGATL">   -200.00000000</i>
   <i type="int" name="OMEGAGRID">   140</i>
   <i name="CSHIFT">     -0.10000000</i>
   <i type="logical" name="SELFENERGY"> F  </i>
   <i type="logical" name="LSPECTRAL"> F  </i>
   <i type="logical" name="LSPECTRALGW"> F  </i>
   <i type="logical" name="LSINGLES"> F  </i>
   <i type="logical" name="LFERMIGW"> F  </i>
   <i type="logical" name="ODDONLYGW"> F  </i>
   <i type="logical" name="EVENONLYGW"> F  </i>
   <i type="int" name="NKREDLFX">     1</i>
   <i type="int" name="NKREDLFY">     1</i>
   <i type="int" name="NKREDLFZ">     1</i>
   <i type="int" name="MAXMEM">  2800</i>
   <i type="int" name="TELESCOPE">     0</i>
   <i type="int" name="TAUPAR">     1</i>
   <i type="int" name="OMEGAPAR">    -1</i>
   <i name="LAMBDA">      1.00000000</i>
  </separator>
  <separator name="External order field" >
   <i name="OFIELD_KAPPA">      0.00000000</i>
   <v name="OFIELD_K">      0.00000000      0.00000000      0.00000000</v>
   <i name="OFIELD_Q6_NEAR">      0.00000000</i>
   <i name="OFIELD_Q6_FAR">      0.00000000</i>
   <i name="OFIELD_A">      0.00000000</i>
  </separator>
 </parameters>
 <atominfo>
  <atoms>      59 </atoms>
  <types>       5 </types>
  <array name="atoms" >
   <dimension dim="1">ion</dimension>
   <field type="string">element</field>
   <field type="int">atomtype</field>
   <set>
    <rc><c>Li</c><c>   1</c></rc>
    <rc><c>Li</c><c>   1</c></rc>
    <rc><c>Li</c><c>   1</c></rc>
    <rc><c>Li</c><c>   1</c></rc>
    <rc><c>Li</c><c>   1</c></rc>
    <rc><c>Li</c><c>   1</c></rc>
    <rc><c>Mg</c><c>   2</c></rc>
    <rc><c>Mg</c><c>   2</c></rc>
    <rc><c>Mg</c><c>   2</c></rc>
    <rc><c>Mg</c><c>   2</c></rc>
    <rc><c>Mg</c><c>   2</c></rc>
    <rc><c>Bi</c><c>   3</c></rc>
    <rc><c>Bi</c><c>   3</c></rc>
    <rc><c>Bi</c><c>   3</c></rc>
    <rc><c>Bi</c><c>   3</c></rc>
    <rc><c>Bi</c><c>   3</c></rc>
    <rc><c>Bi</c><c>   3</c></rc>
    <rc><c>Bi</c><c>   3</c></rc>
    <rc><c>Bi</c><c>   3</c></rc>
    <rc><c>Bi</c><c>   3</c></rc>
    <rc><c>Bi</c><c>   3</c></rc>
    <rc><c>Bi</c><c>   3</c></rc>
    <rc><c>Bi</c><c>   3</c></rc>
    <rc><c>Bi</c><c>   3</c></rc>
    <rc><c>Bi</c><c>   3</c></rc>
    <rc><c>Bi</c><c>   3</c></rc>
    <rc><c>Bi</c><c>   3</c></rc>
    <rc><c>S </c><c>   4</c></rc>
    <rc><c>S </c><c>   4</c></rc>
    <rc><c>S </c><c>   4</c></rc>
    <rc><c>S </c><c>   4</c></rc>
    <rc><c>S </c><c>   4</c></rc>
    <rc><c>S </c><c>   4</c></rc>
    <rc><c>S </c><c>   4</c></rc>
    <rc><c>S </c><c>   4</c></rc>
    <rc><c>S </c><c>   4</c></rc>
    <rc><c>S </c><c>   4</c></rc>
    <rc><c>S </c><c>   4</c></rc>
    <rc><c>S </c><c>   4</c></rc>
    <rc><c>S </c><c>   4</c></rc>
    <rc><c>S </c><c>   4</c></rc>
    <rc><c>S </c><c>   4</c></rc>
    <rc><c>S </c><c>   4</c></rc>
    <rc><c>O </c><c>   5</c></rc>
    <rc><c>O </c><c>   5</c></rc>
    <rc><c>O </c><c>   5</c></rc>
    <rc><c>O </c><c>   5</c></rc>
    <rc><c>O </c><c>   5</c></rc>
    <rc><c>O </c><c>   5</c></rc>
    <rc><c>O </c><c>   5</c></rc>
    <rc><c>O </c><c>   5</c></rc>
    <rc><c>O </c><c>   5</c></rc>
    <rc><c>O </c><c>   5</c></rc>
    <rc><c>O </c><c>   5</c></rc>
    <rc><c>O </c><c>   5</c></rc>
    <rc><c>O </c><c>   5</c></rc>
    <rc><c>O </c><c>   5</c></rc>
    <rc><c>O </c><c>   5</c></rc>
    <rc><c>O </c><c>   5</c></rc>
   </set>
  </array>
  <array name="atomtypes" >
   <dimension dim="1">type</dimension>
   <field type="int">atomspertype</field>
   <field type="string">element</field>
   <field>mass</field>
   <field>valence</field>
   <field type="string">pseudopotential</field>
   <set>
    <rc><c>   6</c><c>Li</c><c>      7.01000000</c><c>      3.00000000</c><c>  PAW_PBE Li_sv 10Sep2004               </c></rc>
    <rc><c>   5</c><c>Mg</c><c>     24.30500000</c><c>      2.00000000</c><c>  PAW_PBE Mg 13Apr2007                  </c></rc>
    <rc><c>  16</c><c>Bi</c><c>    208.98000000</c><c>     15.00000000</c><c>  PAW_PBE Bi_d 06Sep2000                </c></rc>
    <rc><c>  16</c><c>S </c><c>     32.06600000</c><c>      6.00000000</c><c>  PAW_PBE S 06Sep2000                   </c></rc>
    <rc><c>  16</c><c>O </c><c>     16.00000000</c><c>      6.00000000</c><c>  PAW_PBE O 08Apr2002                   </c></rc>
   </set>
  </array>
 </atominfo>
 <structure name="initialpos" >
  <crystal>
   <varray name="basis" >
    <v>      11.17850000       0.00000000       0.00000000 </v>
    <v>       0.00000000       9.57460000       0.00000000 </v>
    <v>       0.00000000       0.00000000      11.18240000 </v>
   </varray>
   <i name="volume">   1196.84853820 </i>
   <varray name="rec_basis" >
    <v>       0.08945744       0.00000000       0.00000000 </v>
    <v>       0.00000000       0.10444301       0.00000000 </v>
    <v>       0.00000000       0.00000000       0.08942624 </v>
   </varray>
  </crystal>
  <varray name="positions" >
   <v>       0.37539000       0.00017000       0.43687000 </v>
   <v>       0.62539000       0.99984000       0.43687000 </v>
   <v>       0.87539000       0.00017000       0.43687000 </v>
   <v>       0.12461000       0.99984000       0.68687000 </v>
   <v>       0.37461000       0.00017000       0.68687000 </v>
   <v>       0.87461000       0.00017000       0.68687000 </v>
   <v>       0.12461000       0.99984000       0.18687000 </v>
   <v>       0.62461000       0.99984000       0.18687000 </v>
   <v>       0.37539000       0.00017000       0.93687000 </v>
   <v>       0.87539000       0.00017000       0.93687000 </v>
   <v>       0.62461000       0.99984000       0.68687000 </v>
   <v>       0.00013000       0.29519000       0.06281000 </v>
   <v>       0.25013000       0.70481000       0.06281000 </v>
   <v>       0.24987000       0.29519000       0.31282000 </v>
   <v>       0.49987000       0.70481000       0.31282000 </v>
   <v>       0.50013000       0.29519000       0.06281000 </v>
   <v>       0.75013000       0.70481000       0.06281000 </v>
   <v>       0.74987000       0.29519000       0.31282000 </v>
   <v>       0.99987000       0.70481000       0.31282000 </v>
   <v>       0.00013000       0.29519000       0.56281000 </v>
   <v>       0.25013000       0.70481000       0.56281000 </v>
   <v>       0.24987000       0.29519000       0.81282000 </v>
   <v>       0.49987000       0.70481000       0.81282000 </v>
   <v>       0.50013000       0.29519000       0.56281000 </v>
   <v>       0.75013000       0.70481000       0.56281000 </v>
   <v>       0.74987000       0.29519000       0.81282000 </v>
   <v>       0.99987000       0.70481000       0.81282000 </v>
   <v>       0.25005000       0.32677000       0.06286000 </v>
   <v>       0.00005000       0.67323000       0.06286000 </v>
   <v>       0.49995000       0.32677000       0.31286000 </v>
   <v>       0.24995000       0.67323000       0.31286000 </v>
   <v>       0.75005000       0.32677000       0.06286000 </v>
   <v>       0.50005000       0.67323000       0.06286000 </v>
   <v>       0.99995000       0.32677000       0.31286000 </v>
   <v>       0.74995000       0.67323000       0.31286000 </v>
   <v>       0.25005000       0.32677000       0.56286000 </v>
   <v>       0.00005000       0.67323000       0.56286000 </v>
   <v>       0.49995000       0.32677000       0.81286000 </v>
   <v>       0.24995000       0.67323000       0.81286000 </v>
   <v>       0.75005000       0.32677000       0.56286000 </v>
   <v>       0.50005000       0.67323000       0.56286000 </v>
   <v>       0.99995000       0.32677000       0.81286000 </v>
   <v>       0.74995000       0.67323000       0.81286000 </v>
   <v>       0.49987000       0.07798000       0.06246000 </v>
   <v>       0.24987000       0.92202000       0.06246000 </v>
   <v>       0.25013000       0.07798000       0.31246000 </v>
   <v>       0.00013000       0.92202000       0.31246000 </v>
   <v>       0.99987000       0.07798000       0.06246000 </v>
   <v>       0.74987000       0.92202000       0.06246000 </v>
   <v>       0.75013000       0.07798000       0.31246000 </v>
   <v>       0.50013000       0.92202000       0.31246000 </v>
   <v>       0.49987000       0.07798000       0.56246000 </v>
   <v>       0.24987000       0.92202000       0.56246000 </v>
   <v>       0.25013000       0.07798000       0.81246000 </v>
   <v>       0.00013000       0.92202000       0.81246000 </v>
   <v>       0.99987000       0.07798000       0.56246000 </v>
   <v>       0.74987000       0.92202000       0.56246000 </v>
   <v>       0.75013000       0.07798000       0.81246000 </v>
   <v>       0.50013000       0.92202000       0.81246000 </v>
  </varray>
 </structure>
 <calculation>
  <scstep>
   <time name="dav">   61.23   61.68</time>
   <time name="total">   61.31   61.77</time>
   <energy>
    <i name="alphaZ">   1060.66890660 </i>
    <i name="ewald"> -30400.35174491 </i>
    <i name="hartreedc"> -12718.58488661 </i>
    <i name="XCdc">   1247.15072651 </i>
    <i name="pawpsdc">  36635.26894311 </i>
    <i name="pawaedc"> -35972.74895369 </i>
    <i name="eentropy">      0.00000000 </i>
    <i name="bandstr">   1864.62656176 </i>
    <i name="atom">  44026.03258983 </i>
    <i name="e_fr_energy">   5742.06214260 </i>
    <i name="e_wo_entrp">   5742.06214260 </i>
    <i name="e_0_energy">   5742.06214260 </i>
   </energy>
  </scstep>
  <scstep>
   <time name="dav">   62.92   63.12</time>
   <time name="total">   62.93   63.13</time>
   <energy>
    <i name="e_fr_energy">    745.58674549 </i>
    <i name="e_wo_entrp">    745.58674549 </i>
    <i name="e_0_energy">    745.58674549 </i>
   </energy>
  </scstep>
  <scstep>
   <time name="dav">   71.37   71.91</time>
   <time name="total">   71.37   71.91</time>
   <energy>
    <i name="e_fr_energy">   -247.14373193 </i>
    <i name="e_wo_entrp">   -247.14373193 </i>
    <i name="e_0_energy">   -247.14373193 </i>
   </energy>
  </scstep>
  <scstep>
   <time name="dav">   72.89   73.61</time>
   <time name="total">   72.90   73.61</time>
   <energy>
    <i name="e_fr_energy">   -336.95866607 </i>
    <i name="e_wo_entrp">   -336.95866607 </i>
    <i name="e_0_energy">   -336.95866607 </i>
   </energy>
  </scstep>
  <scstep>
   <time name="dav">   96.92   97.73</time>
   <time name="total">   97.65   98.46</time>
   <energy>
    <i name="e_fr_energy">   -344.16474879 </i>
    <i name="e_wo_entrp">   -344.16474879 </i>
    <i name="e_0_energy">   -344.16474879 </i>
   </energy>
  </scstep>
  <scstep>
   <time name="dav">   87.91   88.20</time>
   <time name="total">   88.70   89.00</time>
   <energy>
    <i name="e_fr_energy">   -288.48788280 </i>
    <i name="e_wo_entrp">   -288.48788280 </i>
    <i name="e_0_energy">   -288.48788280 </i>
   </energy>
  </scstep>
  <scstep>
   <time name="dav">   66.95   67.31</time>
   <time name="total">   67.74   68.11</time>
   <energy>
    <i name="e_fr_energy">   -290.83386879 </i>
    <i name="e_wo_entrp">   -290.83386879 </i>
    <i name="e_0_energy">   -290.83386879 </i>
   </energy>
  </scstep>
  <scstep>
   <time name="dav">   77.64   78.06</time>
   <time name="total">   78.43   78.86</time>
   <energy>
    <i name="e_fr_energy">   -289.83020682 </i>
    <i name="e_wo_entrp">   -289.83020682 </i>
    <i name="e_0_energy">   -289.83020682 </i>
   </energy>
  </scstep>
  <scstep>
   <time name="dav">   76.90   77.10</time>
   <time name="total">   77.71   77.91</time>
   <energy>
    <i name="e_fr_energy">   -289.31898558 </i>
    <i name="e_wo_entrp">   -289.31898558 </i>
    <i name="e_0_energy">   -289.31898558 </i>
   </energy>
  </scstep>
  <scstep>
   <time name="dav">   76.27   76.66</time>
   <time name="total">   77.06   77.45</time>
   <energy>
    <i name="e_fr_energy">   -289.34169117 </i>
    <i name="e_wo_entrp">   -289.34169117 </i>
    <i name="e_0_energy">   -289.34169117 </i>
   </energy>
  </scstep>
  <scstep>
   <time name="dav">   81.90   82.81</time>
   <time name="total">   82.70   83.61</time>
   <energy>
    <i name="e_fr_energy">   -289.34721434 </i>
    <i name="e_wo_entrp">   -289.34721434 </i>
    <i name="e_0_energy">   -289.34721434 </i>
   </energy>
  </scstep>
  <scstep>
   <time name="dav">   80.26   81.72</time>
   <time name="total">   81.06   82.52</time>
   <energy>
    <i name="e_fr_energy">   -289.35013267 </i>
    <i name="e_wo_entrp">   -289.35013267 </i>
    <i name="e_0_energy">   -289.35013267 </i>
   </energy>
  </scstep>
  <scstep>
   <time name="dav">   73.37   73.66</time>
   <time name="total">   74.16   74.46</time>
   <energy>
    <i name="e_fr_energy">   -289.35144589 </i>
    <i name="e_wo_entrp">   -289.35144589 </i>
    <i name="e_0_energy">   -289.35144589 </i>
   </energy>
  </scstep>
  <scstep>
   <time name="dav">   78.93   79.27</time>
   <time name="total">   79.73   80.07</time>
   <energy>
    <i name="e_fr_energy">   -289.35168448 </i>
    <i name="e_wo_entrp">   -289.35168448 </i>
    <i name="e_0_energy">   -289.35168448 </i>
   </energy>
  </scstep>
  <scstep>
   <time name="dav">   82.89   83.35</time>
   <time name="total">   83.69   84.15</time>
   <energy>
    <i name="e_fr_energy">   -289.35170923 </i>
    <i name="e_wo_entrp">   -289.35170923 </i>
    <i name="e_0_energy">   -289.35170923 </i>
   </energy>
  </scstep>
  <scstep>
   <time name="dav">   66.62   67.18</time>
   <time name="total">   67.43   67.98</time>
   <energy>
    <i name="e_fr_energy">   -289.35173256 </i>
    <i name="e_wo_entrp">   -289.35173256 </i>
    <i name="e_0_energy">   -289.35173256 </i>
   </energy>
  </scstep>
  <scstep>
   <time name="dav">   73.54   73.73</time>
   <time name="total">   74.34   74.53</time>
   <energy>
    <i name="e_fr_energy">   -289.35173379 </i>
    <i name="e_wo_entrp">   -289.35173379 </i>
    <i name="e_0_energy">   -289.35173379 </i>
   </energy>
  </scstep>
  <scstep>
   <time name="dav">   65.80   66.11</time>
   <time name="total">   65.87   66.18</time>
   <energy>
    <i name="alphaZ">   1060.66890660 </i>
    <i name="ewald"> -30400.35174491 </i>
    <i name="hartreedc"> -12959.65515747 </i>
    <i name="XCdc">   1271.99401407 </i>
    <i name="pawpsdc">  43669.97730037 </i>
    <i name="pawaedc"> -42980.92703438 </i>
    <i name="eentropy">      0.00000000 </i>
    <i name="bandstr">  -3977.09060860 </i>
    <i name="atom">  44026.03258983 </i>
    <i name="e_fr_energy">   -289.35173451 </i>
    <i name="e_wo_entrp">   -289.35173451 </i>
    <i name="e_0_energy">   -289.35173451 </i>
   </energy>
  </scstep>
  <structure>
   <crystal>
    <varray name="basis" >
     <v>      11.17850000       0.00000000       0.00000000 </v>
     <v>       0.00000000       9.57460000       0.00000000 </v>
     <v>       0.00000000       0.00000000      11.18240000 </v>
    </varray>
    <i name="volume">   1196.84853820 </i>
    <varray name="rec_basis" >
     <v>       0.08945744       0.00000000       0.00000000 </v>
     <v>       0.00000000       0.10444301       0.00000000 </v>
     <v>       0.00000000       0.00000000       0.08942624 </v>
    </varray>
   </crystal>
   <varray name="positions" >
    <v>       0.37539000       0.00017000       0.43687000 </v>
    <v>       0.62539000       0.99984000       0.43687000 </v>
    <v>       0.87539000       0.00017000       0.43687000 </v>
    <v>       0.12461000       0.99984000       0.68687000 </v>
    <v>       0.37461000       0.00017000       0.68687000 </v>
    <v>       0.87461000       0.00017000       0.68687000 </v>
    <v>       0.12461000       0.99984000       0.18687000 </v>
    <v>       0.62461000       0.99984000       0.18687000 </v>
    <v>       0.37539000       0.00017000       0.93687000 </v>
    <v>       0.87539000       0.00017000       0.93687000 </v>
    <v>       0.62461000       0.99984000       0.68687000 </v>
    <v>       0.00013000       0.29519000       0.06281000 </v>
    <v>       0.25013000       0.70481000       0.06281000 </v>
    <v>       0.24987000       0.29519000       0.31282000 </v>
    <v>       0.49987000       0.70481000       0.31282000 </v>
    <v>       0.50013000       0.29519000       0.06281000 </v>
    <v>       0.75013000       0.70481000       0.06281000 </v>
    <v>       0.74987000       0.29519000       0.31282000 </v>
    <v>       0.99987000       0.70481000       0.31282000 </v>
    <v>       0.00013000       0.29519000       0.56281000 </v>
    <v>       0.25013000       0.70481000       0.56281000 </v>
    <v>       0.24987000       0.29519000       0.81282000 </v>
    <v>       0.49987000       0.70481000       0.81282000 </v>
    <v>       0.50013000       0.29519000       0.56281000 </v>
    <v>       0.75013000       0.70481000       0.56281000 </v>
    <v>       0.74987000       0.29519000       0.81282000 </v>
    <v>       0.99987000       0.70481000       0.81282000 </v>
    <v>       0.25005000       0.32677000       0.06286000 </v>
    <v>       0.00005000       0.67323000       0.06286000 </v>
    <v>       0.49995000       0.32677000       0.31286000 </v>
    <v>       0.24995000       0.67323000       0.31286000 </v>
    <v>       0.75005000       0.32677000       0.06286000 </v>
    <v>       0.50005000       0.67323000       0.06286000 </v>
    <v>       0.99995000       0.32677000       0.31286000 </v>
    <v>       0.74995000       0.67323000       0.31286000 </v>
    <v>       0.25005000       0.32677000       0.56286000 </v>
    <v>       0.00005000       0.67323000       0.56286000 </v>
    <v>       0.49995000       0.32677000       0.81286000 </v>
    <v>       0.24995000       0.67323000       0.81286000 </v>
    <v>       0.75005000       0.32677000       0.56286000 </v>
    <v>       0.50005000       0.67323000       0.56286000 </v>
    <v>       0.99995000       0.32677000       0.81286000 </v>
    <v>       0.74995000       0.67323000       0.81286000 </v>
    <v>       0.49987000       0.07798000       0.06246000 </v>
    <v>       0.24987000       0.92202000       0.06246000 </v>
    <v>       0.25013000       0.07798000       0.31246000 </v>
    <v>       0.00013000       0.92202000       0.31246000 </v>
    <v>       0.99987000       0.07798000       0.06246000 </v>
    <v>       0.74987000       0.92202000       0.06246000 </v>
    <v>       0.75013000       0.07798000       0.31246000 </v>
    <v>       0.50013000       0.92202000       0.31246000 </v>
    <v>       0.49987000       0.07798000       0.56246000 </v>
    <v>       0.24987000       0.92202000       0.56246000 </v>
    <v>       0.25013000       0.07798000       0.81246000 </v>
    <v>       0.00013000       0.92202000       0.81246000 </v>
    <v>       0.99987000       0.07798000       0.56246000 </v>
    <v>       0.74987000       0.92202000       0.56246000 </v>
    <v>       0.75013000       0.07798000       0.81246000 </v>
    <v>       0.50013000       0.92202000       0.81246000 </v>
   </varray>
  </structure>
  <varray name="forces" >
   <v>      -0.66510846      -0.07163294      -0.45612578 </v>
   <v>      -0.00170889       0.00101898      -0.37385919 </v>
   <v>       0.64875800       0.07034389      -0.45688035 </v>
   <v>       0.00991772       0.00011424      -0.18942008 </v>
   <v>      -0.71595719      -0.06369009      -0.33398995 </v>
   <v>       0.71912821       0.06277319      -0.32982122 </v>
   <v>       0.02767555       0.00510497       0.43620762 </v>
   <v>       0.02505114       0.00527812      -0.53704645 </v>
   <v>      -0.34772460       0.11430109       0.92588236 </v>
   <v>       0.29835089      -0.12653346       0.92450319 </v>
   <v>       0.02414186       0.00343124       0.61574118 </v>
   <v>       0.12562361      -0.07828370       0.19454927 </v>
   <v>      -0.13810351       0.09611132       0.19378922 </v>
   <v>      -0.11089084      -1.07137243       0.13808927 </v>
   <v>      -0.39122595      -0.05071428      -0.07554473 </v>
   <v>      -0.16932802      -0.04507028       0.20412387 </v>
   <v>       0.15695150       0.06310559       0.20271061 </v>
   <v>       0.40113794       0.03889134      -0.07682207 </v>
   <v>       0.12570004       1.05777047       0.13862095 </v>
   <v>       0.33631773      -0.96945225      -0.30441248 </v>
   <v>      -0.35060217       0.97497449      -0.30381859 </v>
   <v>      -0.37679610       0.04545468      -0.04268509 </v>
   <v>      -0.08467640      -1.02342936       0.13640723 </v>
   <v>      -0.35492391       1.11013510      -0.28653375 </v>
   <v>       0.34518507      -1.10816797      -0.28416850 </v>
   <v>       0.09430465       1.01152363       0.13698314 </v>
   <v>       0.38986915      -0.04910929      -0.04430437 </v>
   <v>       0.08713767       0.13224226      -0.19369779 </v>
   <v>      -0.08831066      -0.13106047      -0.19088465 </v>
   <v>       0.22550332       0.13834290       0.07901724 </v>
   <v>       0.14758475      -0.19235592      -0.11597430 </v>
   <v>      -0.06832139       0.05771399      -0.15440168 </v>
   <v>       0.06757819      -0.05632620      -0.15273341 </v>
   <v>      -0.14644699       0.19177533      -0.11714638 </v>
   <v>      -0.22481748      -0.13881974       0.08121456 </v>
   <v>       0.28633678       0.19367853       0.19489869 </v>
   <v>      -0.28827369      -0.19296690       0.19296263 </v>
   <v>       0.13633711       0.02202322      -0.12522991 </v>
   <v>       0.23529977      -0.13995641       0.10669981 </v>
   <v>      -0.29737501       0.09779083       0.20283346 </v>
   <v>       0.29754993      -0.09622359       0.20293292 </v>
   <v>      -0.23302396       0.13771982       0.10900156 </v>
   <v>      -0.13591713      -0.02432056      -0.12815081 </v>
   <v>       0.04780578       0.22028308      -0.13987826 </v>
   <v>       0.13516847      -0.33200670      -0.18818786 </v>
   <v>      -0.36628520       1.04102784      -0.51308327 </v>
   <v>       0.34341295      -1.03905024      -0.50486935 </v>
   <v>      -0.11885601       0.32914135      -0.18231093 </v>
   <v>      -0.03164930      -0.22349012      -0.14489105 </v>
   <v>      -1.23721843      -0.00103209       0.20240397 </v>
   <v>       1.21793558       0.00122358       0.21021707 </v>
   <v>       0.72773207      -0.89493439       0.65287025 </v>
   <v>       0.81665763      -0.78953241       0.72741773 </v>
   <v>       1.28503001       0.00102860      -0.06712554 </v>
   <v>      -1.29144048       0.00117326      -0.06887316 </v>
   <v>      -0.80826649       0.78698607       0.72731470 </v>
   <v>      -0.72302403       0.89513137       0.65494258 </v>
   <v>       0.42907725      -0.75527062      -0.75794134 </v>
   <v>      -0.44798805       0.75718804      -0.75152277 </v>
  </varray>
  <varray name="stress" >
   <v>     -10.98175819      -0.61957801       0.00549673 </v>
   <v>      -0.61957814     -13.12520571      -0.01626823 </v>
   <v>       0.00549681      -0.01626831      -7.92646834 </v>
  </varray>
  <energy>
   <i name="e_fr_energy">   -301.98788742 </i>
   <i name="e_wo_entrp">   -301.98788742 </i>
   <i name="e_0_energy">      0.00000000 </i>
  </energy>
  <time name="totalsc"> 1474.98 1484.18</time>
  <eigenvalues>
   <array>
    <dimension dim="1">band</dimension>
    <dimension dim="2">kpoint</dimension>
    <dimension dim="3">spin</dimension>
    <field>eigene</field>
    <field>occ</field>
    <set>
     <set comment="spin 1">
      <set comment="kpoint 1">
       <r>  -40.3167    1.0000 </r>
       <r>  -40.1505    1.0000 </r>
       <r>  -40.1480    1.0000 </r>
       <r>  -39.5821    1.0000 </r>
       <r>  -39.5789    1.0000 </r>
       <r>  -39.4163    1.0000 </r>
       <r>  -19.0331    1.0000 </r>
       <r>  -19.0295    1.0000 </r>
       <r>  -18.9738    1.0000 </r>
       <r>  -18.9719    1.0000 </r>
       <r>  -18.9587    1.0000 </r>
       <r>  -18.9565    1.0000 </r>
       <r>  -18.9496    1.0000 </r>
       <r>  -18.9476    1.0000 </r>
       <r>  -18.8972    1.0000 </r>
       <r>  -18.8957    1.0000 </r>
       <r>  -18.8894    1.0000 </r>
       <r>  -18.8879    1.0000 </r>
       <r>  -18.8609    1.0000 </r>
       <r>  -18.8577    1.0000 </r>
       <r>  -18.8408    1.0000 </r>
       <r>  -18.8377    1.0000 </r>
       <r>  -18.7973    1.0000 </r>
       <r>  -18.7955    1.0000 </r>
       <r>  -18.7846    1.0000 </r>
       <r>  -18.7826    1.0000 </r>
       <r>  -18.7335    1.0000 </r>
       <r>  -18.7284    1.0000 </r>
       <r>  -18.7253    1.0000 </r>
       <r>  -18.7207    1.0000 </r>
       <r>  -18.7104    1.0000 </r>
       <r>  -18.7045    1.0000 </r>
       <r>  -18.6793    1.0000 </r>
       <r>  -18.6786    1.0000 </r>
       <r>  -18.6775    1.0000 </r>
       <r>  -18.6749    1.0000 </r>
       <r>  -18.6623    1.0000 </r>
       <r>  -18.6603    1.0000 </r>
       <r>  -18.6601    1.0000 </r>
       <r>  -18.6575    1.0000 </r>
       <r>  -18.6529    1.0000 </r>
       <r>  -18.6514    1.0000 </r>
       <r>  -18.6505    1.0000 </r>
       <r>  -18.6473    1.0000 </r>
       <r>  -18.5883    1.0000 </r>
       <r>  -18.5835    1.0000 </r>
       <r>  -18.5833    1.0000 </r>
       <r>  -18.5787    1.0000 </r>
       <r>  -18.5773    1.0000 </r>
       <r>  -18.5737    1.0000 </r>
       <r>  -18.5610    1.0000 </r>
       <r>  -18.5549    1.0000 </r>
       <r>  -18.5524    1.0000 </r>
       <r>  -18.5464    1.0000 </r>
       <r>  -18.5242    1.0000 </r>
       <r>  -18.5238    1.0000 </r>
       <r>  -18.5219    1.0000 </r>
       <r>  -18.5195    1.0000 </r>
       <r>  -18.4985    1.0000 </r>
       <r>  -18.4971    1.0000 </r>
       <r>  -18.4964    1.0000 </r>
       <r>  -18.4928    1.0000 </r>
       <r>  -18.4387    1.0000 </r>
       <r>  -18.4363    1.0000 </r>
       <r>  -18.4358    1.0000 </r>
       <r>  -18.4299    1.0000 </r>
       <r>  -18.4262    1.0000 </r>
       <r>  -18.4238    1.0000 </r>
       <r>  -18.4049    1.0000 </r>
       <r>  -18.3989    1.0000 </r>
       <r>  -18.3533    1.0000 </r>
       <r>  -18.3513    1.0000 </r>
       <r>  -18.3495    1.0000 </r>
       <r>  -18.3481    1.0000 </r>
       <r>  -18.3387    1.0000 </r>
       <r>  -18.3349    1.0000 </r>
       <r>  -18.2605    1.0000 </r>
       <r>  -18.2544    1.0000 </r>
       <r>  -18.2338    1.0000 </r>
       <r>  -18.2308    1.0000 </r>
       <r>  -18.2192    1.0000 </r>
       <r>  -18.2162    1.0000 </r>
       <r>  -18.1520    1.0000 </r>
       <r>  -18.1462    1.0000 </r>
       <r>  -18.1253    1.0000 </r>
       <r>  -18.1195    1.0000 </r>
       <r>  -13.7367    1.0000 </r>
       <r>  -13.6006    1.0000 </r>
       <r>  -13.5723    1.0000 </r>
       <r>  -13.5159    1.0000 </r>
       <r>  -12.9220    1.0000 </r>
       <r>  -12.8113    1.0000 </r>
       <r>  -12.7912    1.0000 </r>
       <r>  -12.7476    1.0000 </r>
       <r>  -12.7211    1.0000 </r>
       <r>  -12.7023    1.0000 </r>
       <r>  -12.6375    1.0000 </r>
       <r>  -12.5633    1.0000 </r>
       <r>  -12.0530    1.0000 </r>
       <r>  -11.9746    1.0000 </r>
       <r>  -11.9202    1.0000 </r>
       <r>  -11.8601    1.0000 </r>
       <r>   -9.3840    1.0000 </r>
       <r>   -9.0919    1.0000 </r>
       <r>   -8.5711    1.0000 </r>
       <r>   -8.5441    1.0000 </r>
       <r>   -8.5379    1.0000 </r>
       <r>   -8.4776    1.0000 </r>
       <r>   -8.3551    1.0000 </r>
       <r>   -8.3202    1.0000 </r>
       <r>   -8.3190    1.0000 </r>
       <r>   -8.2594    1.0000 </r>
       <r>   -8.0367    1.0000 </r>
       <r>   -8.0241    1.0000 </r>
       <r>   -7.9977    1.0000 </r>
       <r>   -7.9846    1.0000 </r>
       <r>   -7.3782    1.0000 </r>
       <r>   -7.3777    1.0000 </r>
       <r>   -6.4187    1.0000 </r>
       <r>   -6.4166    1.0000 </r>
       <r>   -6.3929    1.0000 </r>
       <r>   -6.3907    1.0000 </r>
       <r>   -5.6065    1.0000 </r>
       <r>   -5.5917    1.0000 </r>
       <r>   -5.4276    1.0000 </r>
       <r>   -5.3298    1.0000 </r>
       <r>   -5.3135    1.0000 </r>
       <r>   -5.2811    1.0000 </r>
       <r>   -5.2446    1.0000 </r>
       <r>   -5.1218    1.0000 </r>
       <r>   -5.0891    1.0000 </r>
       <r>   -5.0691    1.0000 </r>
       <r>   -3.8203    1.0000 </r>
       <r>   -3.6694    1.0000 </r>
       <r>   -1.5727    1.0000 </r>
       <r>   -1.3371    1.0000 </r>
       <r>   -1.1845    1.0000 </r>
       <r>   -1.0214    1.0000 </r>
       <r>   -0.6562    1.0000 </r>
       <r>   -0.5971    1.0000 </r>
       <r>   -0.5554    1.0000 </r>
       <r>   -0.4920    1.0000 </r>
       <r>   -0.2416    1.0000 </r>
       <r>   -0.2335    1.0000 </r>
       <r>   -0.2029    1.0000 </r>
       <r>   -0.1514    1.0000 </r>
       <r>   -0.1431    1.0000 </r>
       <r>   -0.0104    1.0000 </r>
       <r>    0.1125    1.0000 </r>
       <r>    0.1501    1.0000 </r>
       <r>    0.1869    1.0000 </r>
       <r>    0.3716    1.0000 </r>
       <r>    0.4666    1.0000 </r>
       <r>    0.5216    1.0000 </r>
       <r>    0.5633    1.0000 </r>
       <r>    0.6026    1.0000 </r>
       <r>    0.6917    1.0000 </r>
       <r>    0.6993    1.0000 </r>
       <r>    0.7496    1.0000 </r>
       <r>    0.7688    1.0000 </r>
       <r>    0.8549    1.0000 </r>
       <r>    0.8937    1.0000 </r>
       <r>    0.9028    1.0000 </r>
       <r>    0.9429    1.0000 </r>
       <r>    0.9905    1.0000 </r>
       <r>    1.0108    1.0000 </r>
       <r>    1.0194    1.0000 </r>
       <r>    1.0777    1.0000 </r>
       <r>    1.0894    1.0000 </r>
       <r>    1.1679    1.0000 </r>
       <r>    1.1725    1.0000 </r>
       <r>    1.2259    1.0000 </r>
       <r>    1.3338    1.0000 </r>
       <r>    1.3623    1.0000 </r>
       <r>    1.4060    1.0000 </r>
       <r>    1.5572    1.0000 </r>
       <r>    1.5821    1.0000 </r>
       <r>    1.6002    1.0000 </r>
       <r>    1.6779    1.0000 </r>
       <r>    1.7054    1.0000 </r>
       <r>    1.7365    1.0000 </r>
       <r>    1.7407    1.0000 </r>
       <r>    1.8370    1.0000 </r>
       <r>    1.8696    1.0000 </r>
       <r>    1.9376    1.0000 </r>
       <r>    1.9948    1.0000 </r>
       <r>    2.0603    1.0000 </r>
       <r>    2.2051    1.0000 </r>
       <r>    2.2385    1.0000 </r>
       <r>    2.3280    1.0000 </r>
       <r>    2.3345    1.0000 </r>
       <r>    2.3689    1.0000 </r>
       <r>    2.4056    1.0000 </r>
       <r>    2.4118    1.0000 </r>
       <r>    2.5255    1.0000 </r>
       <r>    2.5265    1.0000 </r>
       <r>    2.5551    1.0000 </r>
       <r>    2.5579    1.0000 </r>
       <r>    2.5952    1.0000 </r>
       <r>    2.6045    1.0000 </r>
       <r>    2.6472    1.0000 </r>
       <r>    2.7182    1.0000 </r>
       <r>    2.7451    1.0000 </r>
       <r>    2.7916    1.0000 </r>
       <r>    2.8025    1.0000 </r>
       <r>    2.9025    1.0000 </r>
       <r>    2.9235    1.0000 </r>
       <r>    2.9574    1.0000 </r>
       <r>    2.9772    1.0000 </r>
       <r>    2.9871    1.0000 </r>
       <r>    3.0545    1.0000 </r>
       <r>    3.0876    1.0000 </r>
       <r>    3.1130    1.0000 </r>
       <r>    3.1481    1.0000 </r>
       <r>    3.1698    1.0000 </r>
       <r>    3.1708    1.0000 </r>
       <r>    3.2199    1.0000 </r>
       <r>    3.2270    1.0000 </r>
       <r>    3.2491    1.0000 </r>
       <r>    3.2732    1.0000 </r>
       <r>    3.3397    1.0000 </r>
       <r>    3.3652    1.0000 </r>
       <r>    3.4389    1.0000 </r>
       <r>    3.4900    1.0000 </r>
       <r>    3.6532    1.0000 </r>
       <r>    3.8360    1.0000 </r>
       <r>    4.1639    1.0000 </r>
       <r>    4.1718    1.0000 </r>
       <r>    4.2265    1.0000 </r>
       <r>    4.2283    1.0000 </r>
       <r>    4.9710    0.0000 </r>
       <r>    4.9726    0.0000 </r>
       <r>    5.1583    0.0000 </r>
       <r>    5.1685    0.0000 </r>
       <r>    5.6736    0.0000 </r>
       <r>    5.6823    0.0000 </r>
       <r>    5.7791    0.0000 </r>
       <r>    5.7914    0.0000 </r>
       <r>    6.0900    0.0000 </r>
       <r>    6.1151    0.0000 </r>
       <r>    6.1317    0.0000 </r>
       <r>    6.1670    0.0000 </r>
       <r>    6.2124    0.0000 </r>
       <r>    6.2436    0.0000 </r>
       <r>    6.2471    0.0000 </r>
       <r>    6.2731    0.0000 </r>
       <r>    6.9416    0.0000 </r>
       <r>    6.9857    0.0000 </r>
       <r>    7.2368    0.0000 </r>
       <r>    7.2420    0.0000 </r>
       <r>    7.7120    0.0000 </r>
       <r>    7.7762    0.0000 </r>
       <r>    7.8517    0.0000 </r>
       <r>    7.9000    0.0000 </r>
       <r>    7.9577    0.0000 </r>
       <r>    7.9810    0.0000 </r>
       <r>    8.0573    0.0000 </r>
       <r>    8.0919    0.0000 </r>
       <r>    8.3429    0.0000 </r>
       <r>    8.6251    0.0000 </r>
       <r>    8.6818    0.0000 </r>
       <r>    8.7303    0.0000 </r>
       <r>    8.8049    0.0000 </r>
       <r>    8.8087    0.0000 </r>
       <r>    8.8195    0.0000 </r>
       <r>    8.9578    0.0000 </r>
       <r>    8.9725    0.0000 </r>
       <r>    9.0015    0.0000 </r>
       <r>    9.0257    0.0000 </r>
       <r>    9.0701    0.0000 </r>
       <r>    9.0831    0.0000 </r>
       <r>    9.1423    0.0000 </r>
       <r>    9.1759    0.0000 </r>
       <r>    9.2814    0.0000 </r>
       <r>    9.3411    0.0000 </r>
       <r>    9.4354    0.0000 </r>
       <r>    9.5035    0.0000 </r>
       <r>    9.5087    0.0000 </r>
       <r>    9.7204    0.0000 </r>
       <r>    9.7534    0.0000 </r>
      </set>
      <set comment="kpoint 2">
       <r>  -40.3167    1.0000 </r>
       <r>  -40.1505    1.0000 </r>
       <r>  -40.1480    1.0000 </r>
       <r>  -39.5821    1.0000 </r>
       <r>  -39.5789    1.0000 </r>
       <r>  -39.4163    1.0000 </r>
       <r>  -19.0331    1.0000 </r>
       <r>  -19.0295    1.0000 </r>
       <r>  -18.9738    1.0000 </r>
       <r>  -18.9719    1.0000 </r>
       <r>  -18.9586    1.0000 </r>
       <r>  -18.9565    1.0000 </r>
       <r>  -18.9496    1.0000 </r>
       <r>  -18.9476    1.0000 </r>
       <r>  -18.8972    1.0000 </r>
       <r>  -18.8957    1.0000 </r>
       <r>  -18.8894    1.0000 </r>
       <r>  -18.8879    1.0000 </r>
       <r>  -18.8609    1.0000 </r>
       <r>  -18.8577    1.0000 </r>
       <r>  -18.8408    1.0000 </r>
       <r>  -18.8377    1.0000 </r>
       <r>  -18.7973    1.0000 </r>
       <r>  -18.7955    1.0000 </r>
       <r>  -18.7846    1.0000 </r>
       <r>  -18.7826    1.0000 </r>
       <r>  -18.7334    1.0000 </r>
       <r>  -18.7284    1.0000 </r>
       <r>  -18.7252    1.0000 </r>
       <r>  -18.7206    1.0000 </r>
       <r>  -18.7104    1.0000 </r>
       <r>  -18.7045    1.0000 </r>
       <r>  -18.6800    1.0000 </r>
       <r>  -18.6781    1.0000 </r>
       <r>  -18.6778    1.0000 </r>
       <r>  -18.6748    1.0000 </r>
       <r>  -18.6643    1.0000 </r>
       <r>  -18.6620    1.0000 </r>
       <r>  -18.6581    1.0000 </r>
       <r>  -18.6556    1.0000 </r>
       <r>  -18.6530    1.0000 </r>
       <r>  -18.6513    1.0000 </r>
       <r>  -18.6506    1.0000 </r>
       <r>  -18.6472    1.0000 </r>
       <r>  -18.5883    1.0000 </r>
       <r>  -18.5835    1.0000 </r>
       <r>  -18.5834    1.0000 </r>
       <r>  -18.5787    1.0000 </r>
       <r>  -18.5773    1.0000 </r>
       <r>  -18.5737    1.0000 </r>
       <r>  -18.5610    1.0000 </r>
       <r>  -18.5550    1.0000 </r>
       <r>  -18.5524    1.0000 </r>
       <r>  -18.5464    1.0000 </r>
       <r>  -18.5242    1.0000 </r>
       <r>  -18.5238    1.0000 </r>
       <r>  -18.5219    1.0000 </r>
       <r>  -18.5195    1.0000 </r>
       <r>  -18.4985    1.0000 </r>
       <r>  -18.4971    1.0000 </r>
       <r>  -18.4964    1.0000 </r>
       <r>  -18.4928    1.0000 </r>
       <r>  -18.4388    1.0000 </r>
       <r>  -18.4363    1.0000 </r>
       <r>  -18.4358    1.0000 </r>
       <r>  -18.4299    1.0000 </r>
       <r>  -18.4262    1.0000 </r>
       <r>  -18.4238    1.0000 </r>
       <r>  -18.4049    1.0000 </r>
       <r>  -18.3989    1.0000 </r>
       <r>  -18.3533    1.0000 </r>
       <r>  -18.3513    1.0000 </r>
       <r>  -18.3495    1.0000 </r>
       <r>  -18.3481    1.0000 </r>
       <r>  -18.3387    1.0000 </r>
       <r>  -18.3349    1.0000 </r>
       <r>  -18.2605    1.0000 </r>
       <r>  -18.2544    1.0000 </r>
       <r>  -18.2338    1.0000 </r>
       <r>  -18.2308    1.0000 </r>
       <r>  -18.2192    1.0000 </r>
       <r>  -18.2162    1.0000 </r>
       <r>  -18.1520    1.0000 </r>
       <r>  -18.1462    1.0000 </r>
       <r>  -18.1253    1.0000 </r>
       <r>  -18.1195    1.0000 </r>
       <r>  -13.7360    1.0000 </r>
       <r>  -13.6015    1.0000 </r>
       <r>  -13.5721    1.0000 </r>
       <r>  -13.5160    1.0000 </r>
       <r>  -12.9117    1.0000 </r>
       <r>  -12.8441    1.0000 </r>
       <r>  -12.7640    1.0000 </r>
       <r>  -12.7488    1.0000 </r>
       <r>  -12.7231    1.0000 </r>
       <r>  -12.7064    1.0000 </r>
       <r>  -12.6329    1.0000 </r>
       <r>  -12.5652    1.0000 </r>
       <r>  -12.0532    1.0000 </r>
       <r>  -11.9742    1.0000 </r>
       <r>  -11.9208    1.0000 </r>
       <r>  -11.8597    1.0000 </r>
       <r>   -9.2610    1.0000 </r>
       <r>   -9.0408    1.0000 </r>
       <r>   -8.9883    1.0000 </r>
       <r>   -8.7644    1.0000 </r>
       <r>   -8.4591    1.0000 </r>
       <r>   -8.4471    1.0000 </r>
       <r>   -8.3134    1.0000 </r>
       <r>   -8.3008    1.0000 </r>
       <r>   -8.2132    1.0000 </r>
       <r>   -8.1978    1.0000 </r>
       <r>   -8.0675    1.0000 </r>
       <r>   -8.0550    1.0000 </r>
       <r>   -7.7944    1.0000 </r>
       <r>   -7.6847    1.0000 </r>
       <r>   -7.6320    1.0000 </r>
       <r>   -7.5225    1.0000 </r>
       <r>   -6.1038    1.0000 </r>
       <r>   -6.0737    1.0000 </r>
       <r>   -6.0334    1.0000 </r>
       <r>   -5.9805    1.0000 </r>
       <r>   -5.8094    1.0000 </r>
       <r>   -5.7456    1.0000 </r>
       <r>   -5.7249    1.0000 </r>
       <r>   -5.7098    1.0000 </r>
       <r>   -5.6933    1.0000 </r>
       <r>   -5.6030    1.0000 </r>
       <r>   -5.4706    1.0000 </r>
       <r>   -5.4286    1.0000 </r>
       <r>   -4.5501    1.0000 </r>
       <r>   -4.3934    1.0000 </r>
       <r>   -4.3294    1.0000 </r>
       <r>   -4.1571    1.0000 </r>
       <r>   -1.3660    1.0000 </r>
       <r>   -1.0712    1.0000 </r>
       <r>   -0.9764    1.0000 </r>
       <r>   -0.7344    1.0000 </r>
       <r>   -0.6343    1.0000 </r>
       <r>   -0.3753    1.0000 </r>
       <r>   -0.2171    1.0000 </r>
       <r>   -0.1244    1.0000 </r>
       <r>   -0.0618    1.0000 </r>
       <r>   -0.0309    1.0000 </r>
       <r>   -0.0191    1.0000 </r>
       <r>    0.0313    1.0000 </r>
       <r>    0.0916    1.0000 </r>
       <r>    0.1465    1.0000 </r>
       <r>    0.3054    1.0000 </r>
       <r>    0.3251    1.0000 </r>
       <r>    0.3366    1.0000 </r>
       <r>    0.4025    1.0000 </r>
       <r>    0.4602    1.0000 </r>
       <r>    0.4793    1.0000 </r>
       <r>    0.5348    1.0000 </r>
       <r>    0.5775    1.0000 </r>
       <r>    0.5904    1.0000 </r>
       <r>    0.6106    1.0000 </r>
       <r>    0.7079    1.0000 </r>
       <r>    0.7352    1.0000 </r>
       <r>    0.7591    1.0000 </r>
       <r>    0.7977    1.0000 </r>
       <r>    0.9341    1.0000 </r>
       <r>    0.9495    1.0000 </r>
       <r>    1.0098    1.0000 </r>
       <r>    1.0247    1.0000 </r>
       <r>    1.0791    1.0000 </r>
       <r>    1.1043    1.0000 </r>
       <r>    1.1875    1.0000 </r>
       <r>    1.1970    1.0000 </r>
       <r>    1.2161    1.0000 </r>
       <r>    1.2391    1.0000 </r>
       <r>    1.2931    1.0000 </r>
       <r>    1.3524    1.0000 </r>
       <r>    1.3672    1.0000 </r>
       <r>    1.4150    1.0000 </r>
       <r>    1.4411    1.0000 </r>
       <r>    1.5194    1.0000 </r>
       <r>    1.5413    1.0000 </r>
       <r>    1.5432    1.0000 </r>
       <r>    1.7048    1.0000 </r>
       <r>    1.7050    1.0000 </r>
       <r>    1.7617    1.0000 </r>
       <r>    1.8138    1.0000 </r>
       <r>    1.8662    1.0000 </r>
       <r>    1.8724    1.0000 </r>
       <r>    1.9594    1.0000 </r>
       <r>    1.9770    1.0000 </r>
       <r>    2.0423    1.0000 </r>
       <r>    2.0571    1.0000 </r>
       <r>    2.1296    1.0000 </r>
       <r>    2.1518    1.0000 </r>
       <r>    2.2011    1.0000 </r>
       <r>    2.2476    1.0000 </r>
       <r>    2.3423    1.0000 </r>
       <r>    2.3855    1.0000 </r>
       <r>    2.4108    1.0000 </r>
       <r>    2.4431    1.0000 </r>
       <r>    2.4645    1.0000 </r>
       <r>    2.5175    1.0000 </r>
       <r>    2.5275    1.0000 </r>
       <r>    2.5810    1.0000 </r>
       <r>    2.6414    1.0000 </r>
       <r>    2.6550    1.0000 </r>
       <r>    2.7046    1.0000 </r>
       <r>    2.7670    1.0000 </r>
       <r>    2.7857    1.0000 </r>
       <r>    2.7975    1.0000 </r>
       <r>    2.8396    1.0000 </r>
       <r>    2.9230    1.0000 </r>
       <r>    2.9336    1.0000 </r>
       <r>    2.9529    1.0000 </r>
       <r>    3.0049    1.0000 </r>
       <r>    3.0593    1.0000 </r>
       <r>    3.0708    1.0000 </r>
       <r>    3.0990    1.0000 </r>
       <r>    3.1632    1.0000 </r>
       <r>    3.1705    1.0000 </r>
       <r>    3.2733    1.0000 </r>
       <r>    3.3091    1.0000 </r>
       <r>    3.3384    1.0000 </r>
       <r>    3.4017    1.0000 </r>
       <r>    3.4489    1.0000 </r>
       <r>    3.5178    1.0000 </r>
       <r>    3.5867    1.0000 </r>
       <r>    3.6212    1.0000 </r>
       <r>    3.6336    1.0000 </r>
       <r>    3.7167    1.0000 </r>
       <r>    3.7403    1.0000 </r>
       <r>    3.9662    1.0000 </r>
       <r>    5.4837    0.0000 </r>
       <r>    5.5366    0.0000 </r>
       <r>    5.5426    0.0000 </r>
       <r>    5.6097    0.0000 </r>
       <r>    5.8244    0.0000 </r>
       <r>    5.8646    0.0000 </r>
       <r>    5.8721    0.0000 </r>
       <r>    5.9068    0.0000 </r>
       <r>    7.0537    0.0000 </r>
       <r>    7.0692    0.0000 </r>
       <r>    7.1757    0.0000 </r>
       <r>    7.2279    0.0000 </r>
       <r>    7.2476    0.0000 </r>
       <r>    7.3324    0.0000 </r>
       <r>    7.3877    0.0000 </r>
       <r>    7.4365    0.0000 </r>
       <r>    7.4937    0.0000 </r>
       <r>    7.4990    0.0000 </r>
       <r>    7.5300    0.0000 </r>
       <r>    7.6320    0.0000 </r>
       <r>    7.7489    0.0000 </r>
       <r>    7.7815    0.0000 </r>
       <r>    7.8168    0.0000 </r>
       <r>    7.8314    0.0000 </r>
       <r>    7.8647    0.0000 </r>
       <r>    7.8696    0.0000 </r>
       <r>    7.9215    0.0000 </r>
       <r>    7.9343    0.0000 </r>
       <r>    7.9564    0.0000 </r>
       <r>    7.9769    0.0000 </r>
       <r>    7.9983    0.0000 </r>
       <r>    8.0379    0.0000 </r>
       <r>    8.2468    0.0000 </r>
       <r>    8.3112    0.0000 </r>
       <r>    8.4649    0.0000 </r>
       <r>    8.5147    0.0000 </r>
       <r>    8.6175    0.0000 </r>
       <r>    8.7021    0.0000 </r>
       <r>    8.7178    0.0000 </r>
       <r>    8.7203    0.0000 </r>
       <r>    8.7402    0.0000 </r>
       <r>    8.8561    0.0000 </r>
       <r>    8.9201    0.0000 </r>
       <r>    8.9299    0.0000 </r>
       <r>    9.0201    0.0000 </r>
       <r>    9.1808    0.0000 </r>
       <r>    9.2996    0.0000 </r>
       <r>    9.3343    0.0000 </r>
       <r>    9.5596    0.0000 </r>
       <r>    9.6139    0.0000 </r>
      </set>
      <set comment="kpoint 3">
       <r>  -40.3167    1.0000 </r>
       <r>  -40.1505    1.0000 </r>
       <r>  -40.1480    1.0000 </r>
       <r>  -39.5821    1.0000 </r>
       <r>  -39.5789    1.0000 </r>
       <r>  -39.4163    1.0000 </r>
       <r>  -19.0333    1.0000 </r>
       <r>  -19.0294    1.0000 </r>
       <r>  -18.9738    1.0000 </r>
       <r>  -18.9719    1.0000 </r>
       <r>  -18.9587    1.0000 </r>
       <r>  -18.9565    1.0000 </r>
       <r>  -18.9496    1.0000 </r>
       <r>  -18.9476    1.0000 </r>
       <r>  -18.8972    1.0000 </r>
       <r>  -18.8957    1.0000 </r>
       <r>  -18.8894    1.0000 </r>
       <r>  -18.8879    1.0000 </r>
       <r>  -18.8609    1.0000 </r>
       <r>  -18.8577    1.0000 </r>
       <r>  -18.8408    1.0000 </r>
       <r>  -18.8377    1.0000 </r>
       <r>  -18.7973    1.0000 </r>
       <r>  -18.7955    1.0000 </r>
       <r>  -18.7845    1.0000 </r>
       <r>  -18.7826    1.0000 </r>
       <r>  -18.7335    1.0000 </r>
       <r>  -18.7284    1.0000 </r>
       <r>  -18.7253    1.0000 </r>
       <r>  -18.7207    1.0000 </r>
       <r>  -18.7105    1.0000 </r>
       <r>  -18.7045    1.0000 </r>
       <r>  -18.6793    1.0000 </r>
       <r>  -18.6786    1.0000 </r>
       <r>  -18.6774    1.0000 </r>
       <r>  -18.6750    1.0000 </r>
       <r>  -18.6623    1.0000 </r>
       <r>  -18.6603    1.0000 </r>
       <r>  -18.6601    1.0000 </r>
       <r>  -18.6575    1.0000 </r>
       <r>  -18.6528    1.0000 </r>
       <r>  -18.6515    1.0000 </r>
       <r>  -18.6507    1.0000 </r>
       <r>  -18.6472    1.0000 </r>
       <r>  -18.5883    1.0000 </r>
       <r>  -18.5835    1.0000 </r>
       <r>  -18.5834    1.0000 </r>
       <r>  -18.5787    1.0000 </r>
       <r>  -18.5773    1.0000 </r>
       <r>  -18.5737    1.0000 </r>
       <r>  -18.5610    1.0000 </r>
       <r>  -18.5550    1.0000 </r>
       <r>  -18.5523    1.0000 </r>
       <r>  -18.5464    1.0000 </r>
       <r>  -18.5242    1.0000 </r>
       <r>  -18.5238    1.0000 </r>
       <r>  -18.5220    1.0000 </r>
       <r>  -18.5195    1.0000 </r>
       <r>  -18.4985    1.0000 </r>
       <r>  -18.4971    1.0000 </r>
       <r>  -18.4964    1.0000 </r>
       <r>  -18.4928    1.0000 </r>
       <r>  -18.4387    1.0000 </r>
       <r>  -18.4363    1.0000 </r>
       <r>  -18.4358    1.0000 </r>
       <r>  -18.4299    1.0000 </r>
       <r>  -18.4262    1.0000 </r>
       <r>  -18.4238    1.0000 </r>
       <r>  -18.4049    1.0000 </r>
       <r>  -18.3989    1.0000 </r>
       <r>  -18.3533    1.0000 </r>
       <r>  -18.3514    1.0000 </r>
       <r>  -18.3495    1.0000 </r>
       <r>  -18.3481    1.0000 </r>
       <r>  -18.3387    1.0000 </r>
       <r>  -18.3349    1.0000 </r>
       <r>  -18.2605    1.0000 </r>
       <r>  -18.2543    1.0000 </r>
       <r>  -18.2338    1.0000 </r>
       <r>  -18.2308    1.0000 </r>
       <r>  -18.2192    1.0000 </r>
       <r>  -18.2162    1.0000 </r>
       <r>  -18.1520    1.0000 </r>
       <r>  -18.1462    1.0000 </r>
       <r>  -18.1253    1.0000 </r>
       <r>  -18.1195    1.0000 </r>
       <r>  -13.7364    1.0000 </r>
       <r>  -13.6007    1.0000 </r>
       <r>  -13.5722    1.0000 </r>
       <r>  -13.5162    1.0000 </r>
       <r>  -12.9208    1.0000 </r>
       <r>  -12.8108    1.0000 </r>
       <r>  -12.7915    1.0000 </r>
       <r>  -12.7475    1.0000 </r>
       <r>  -12.7217    1.0000 </r>
       <r>  -12.7032    1.0000 </r>
       <r>  -12.6373    1.0000 </r>
       <r>  -12.5642    1.0000 </r>
       <r>  -12.0512    1.0000 </r>
       <r>  -11.9759    1.0000 </r>
       <r>  -11.9201    1.0000 </r>
       <r>  -11.8618    1.0000 </r>
       <r>   -9.3743    1.0000 </r>
       <r>   -9.0983    1.0000 </r>
       <r>   -8.5891    1.0000 </r>
       <r>   -8.5617    1.0000 </r>
       <r>   -8.5547    1.0000 </r>
       <r>   -8.4943    1.0000 </r>
       <r>   -8.3359    1.0000 </r>
       <r>   -8.3018    1.0000 </r>
       <r>   -8.3001    1.0000 </r>
       <r>   -8.2414    1.0000 </r>
       <r>   -8.0399    1.0000 </r>
       <r>   -8.0275    1.0000 </r>
       <r>   -8.0004    1.0000 </r>
       <r>   -7.9865    1.0000 </r>
       <r>   -7.3813    1.0000 </r>
       <r>   -7.3802    1.0000 </r>
       <r>   -6.4107    1.0000 </r>
       <r>   -6.4051    1.0000 </r>
       <r>   -6.3836    1.0000 </r>
       <r>   -6.3812    1.0000 </r>
       <r>   -5.6124    1.0000 </r>
       <r>   -5.5892    1.0000 </r>
       <r>   -5.4781    1.0000 </r>
       <r>   -5.3595    1.0000 </r>
       <r>   -5.3235    1.0000 </r>
       <r>   -5.3128    1.0000 </r>
       <r>   -5.1926    1.0000 </r>
       <r>   -5.0706    1.0000 </r>
       <r>   -5.0483    1.0000 </r>
       <r>   -5.0309    1.0000 </r>
       <r>   -3.8949    1.0000 </r>
       <r>   -3.5832    1.0000 </r>
       <r>   -1.4339    1.0000 </r>
       <r>   -1.3743    1.0000 </r>
       <r>   -1.2910    1.0000 </r>
       <r>   -1.0830    1.0000 </r>
       <r>   -0.5532    1.0000 </r>
       <r>   -0.5013    1.0000 </r>
       <r>   -0.4619    1.0000 </r>
       <r>   -0.4494    1.0000 </r>
       <r>   -0.4128    1.0000 </r>
       <r>   -0.4007    1.0000 </r>
       <r>   -0.3634    1.0000 </r>
       <r>   -0.3045    1.0000 </r>
       <r>   -0.2780    1.0000 </r>
       <r>   -0.1157    1.0000 </r>
       <r>   -0.0915    1.0000 </r>
       <r>   -0.0407    1.0000 </r>
       <r>    0.0792    1.0000 </r>
       <r>    0.2911    1.0000 </r>
       <r>    0.3209    1.0000 </r>
       <r>    0.4347    1.0000 </r>
       <r>    0.4663    1.0000 </r>
       <r>    0.5641    1.0000 </r>
       <r>    0.5816    1.0000 </r>
       <r>    0.6555    1.0000 </r>
       <r>    0.7421    1.0000 </r>
       <r>    0.7724    1.0000 </r>
       <r>    0.7739    1.0000 </r>
       <r>    0.8231    1.0000 </r>
       <r>    0.8700    1.0000 </r>
       <r>    0.9064    1.0000 </r>
       <r>    0.9809    1.0000 </r>
       <r>    1.0600    1.0000 </r>
       <r>    1.1077    1.0000 </r>
       <r>    1.1522    1.0000 </r>
       <r>    1.2084    1.0000 </r>
       <r>    1.2793    1.0000 </r>
       <r>    1.3127    1.0000 </r>
       <r>    1.3536    1.0000 </r>
       <r>    1.4024    1.0000 </r>
       <r>    1.4239    1.0000 </r>
       <r>    1.5143    1.0000 </r>
       <r>    1.5653    1.0000 </r>
       <r>    1.6234    1.0000 </r>
       <r>    1.6831    1.0000 </r>
       <r>    1.7789    1.0000 </r>
       <r>    1.8426    1.0000 </r>
       <r>    1.8588    1.0000 </r>
       <r>    1.9447    1.0000 </r>
       <r>    1.9473    1.0000 </r>
       <r>    2.0231    1.0000 </r>
       <r>    2.0379    1.0000 </r>
       <r>    2.1534    1.0000 </r>
       <r>    2.2354    1.0000 </r>
       <r>    2.2429    1.0000 </r>
       <r>    2.3432    1.0000 </r>
       <r>    2.3832    1.0000 </r>
       <r>    2.3896    1.0000 </r>
       <r>    2.4341    1.0000 </r>
       <r>    2.4544    1.0000 </r>
       <r>    2.4824    1.0000 </r>
       <r>    2.4870    1.0000 </r>
       <r>    2.5276    1.0000 </r>
       <r>    2.5292    1.0000 </r>
       <r>    2.5411    1.0000 </r>
       <r>    2.5613    1.0000 </r>
       <r>    2.5759    1.0000 </r>
       <r>    2.6484    1.0000 </r>
       <r>    2.7093    1.0000 </r>
       <r>    2.7577    1.0000 </r>
       <r>    2.8260    1.0000 </r>
       <r>    2.8607    1.0000 </r>
       <r>    2.8668    1.0000 </r>
       <r>    2.9061    1.0000 </r>
       <r>    2.9113    1.0000 </r>
       <r>    2.9158    1.0000 </r>
       <r>    2.9463    1.0000 </r>
       <r>    2.9638    1.0000 </r>
       <r>    3.0438    1.0000 </r>
       <r>    3.0609    1.0000 </r>
       <r>    3.0957    1.0000 </r>
       <r>    3.1966    1.0000 </r>
       <r>    3.2319    1.0000 </r>
       <r>    3.2844    1.0000 </r>
       <r>    3.3579    1.0000 </r>
       <r>    3.3597    1.0000 </r>
       <r>    3.3964    1.0000 </r>
       <r>    3.4124    1.0000 </r>
       <r>    3.4440    1.0000 </r>
       <r>    3.4524    1.0000 </r>
       <r>    3.5602    1.0000 </r>
       <r>    3.6273    1.0000 </r>
       <r>    3.7841    1.0000 </r>
       <r>    4.2136    1.0000 </r>
       <r>    4.2254    1.0000 </r>
       <r>    4.2724    1.0000 </r>
       <r>    4.2846    1.0000 </r>
       <r>    5.0501    0.0000 </r>
       <r>    5.0530    0.0000 </r>
       <r>    5.2225    0.0000 </r>
       <r>    5.2269    0.0000 </r>
       <r>    5.6864    0.0000 </r>
       <r>    5.6871    0.0000 </r>
       <r>    5.7905    0.0000 </r>
       <r>    5.7994    0.0000 </r>
       <r>    6.1416    0.0000 </r>
       <r>    6.1624    0.0000 </r>
       <r>    6.1836    0.0000 </r>
       <r>    6.2024    0.0000 </r>
       <r>    6.2284    0.0000 </r>
       <r>    6.2590    0.0000 </r>
       <r>    6.2608    0.0000 </r>
       <r>    6.2952    0.0000 </r>
       <r>    6.5555    0.0000 </r>
       <r>    6.7172    0.0000 </r>
       <r>    6.9133    0.0000 </r>
       <r>    6.9625    0.0000 </r>
       <r>    7.0850    0.0000 </r>
       <r>    7.2888    0.0000 </r>
       <r>    7.4069    0.0000 </r>
       <r>    7.4239    0.0000 </r>
       <r>    7.8076    0.0000 </r>
       <r>    7.8485    0.0000 </r>
       <r>    7.8823    0.0000 </r>
       <r>    7.8860    0.0000 </r>
       <r>    8.0111    0.0000 </r>
       <r>    8.3697    0.0000 </r>
       <r>    8.3896    0.0000 </r>
       <r>    8.4049    0.0000 </r>
       <r>    8.5684    0.0000 </r>
       <r>    8.7483    0.0000 </r>
       <r>    8.8354    0.0000 </r>
       <r>    8.9252    0.0000 </r>
       <r>    8.9831    0.0000 </r>
       <r>    8.9978    0.0000 </r>
       <r>    9.0196    0.0000 </r>
       <r>    9.0303    0.0000 </r>
       <r>    9.0436    0.0000 </r>
       <r>    9.1315    0.0000 </r>
       <r>    9.1449    0.0000 </r>
       <r>    9.2354    0.0000 </r>
       <r>    9.4628    0.0000 </r>
       <r>    9.4767    0.0000 </r>
       <r>    9.5941    0.0000 </r>
       <r>    9.6731    0.0000 </r>
       <r>    9.7160    0.0000 </r>
       <r>    9.7276    0.0000 </r>
      </set>
      <set comment="kpoint 4">
       <r>  -40.3167    1.0000 </r>
       <r>  -40.1505    1.0000 </r>
       <r>  -40.1480    1.0000 </r>
       <r>  -39.5821    1.0000 </r>
       <r>  -39.5789    1.0000 </r>
       <r>  -39.4163    1.0000 </r>
       <r>  -19.0332    1.0000 </r>
       <r>  -19.0293    1.0000 </r>
       <r>  -18.9738    1.0000 </r>
       <r>  -18.9719    1.0000 </r>
       <r>  -18.9586    1.0000 </r>
       <r>  -18.9565    1.0000 </r>
       <r>  -18.9496    1.0000 </r>
       <r>  -18.9476    1.0000 </r>
       <r>  -18.8972    1.0000 </r>
       <r>  -18.8957    1.0000 </r>
       <r>  -18.8894    1.0000 </r>
       <r>  -18.8879    1.0000 </r>
       <r>  -18.8609    1.0000 </r>
       <r>  -18.8577    1.0000 </r>
       <r>  -18.8408    1.0000 </r>
       <r>  -18.8377    1.0000 </r>
       <r>  -18.7973    1.0000 </r>
       <r>  -18.7955    1.0000 </r>
       <r>  -18.7845    1.0000 </r>
       <r>  -18.7826    1.0000 </r>
       <r>  -18.7334    1.0000 </r>
       <r>  -18.7284    1.0000 </r>
       <r>  -18.7252    1.0000 </r>
       <r>  -18.7206    1.0000 </r>
       <r>  -18.7104    1.0000 </r>
       <r>  -18.7044    1.0000 </r>
       <r>  -18.6800    1.0000 </r>
       <r>  -18.6782    1.0000 </r>
       <r>  -18.6778    1.0000 </r>
       <r>  -18.6749    1.0000 </r>
       <r>  -18.6643    1.0000 </r>
       <r>  -18.6620    1.0000 </r>
       <r>  -18.6581    1.0000 </r>
       <r>  -18.6556    1.0000 </r>
       <r>  -18.6529    1.0000 </r>
       <r>  -18.6514    1.0000 </r>
       <r>  -18.6508    1.0000 </r>
       <r>  -18.6471    1.0000 </r>
       <r>  -18.5883    1.0000 </r>
       <r>  -18.5835    1.0000 </r>
       <r>  -18.5834    1.0000 </r>
       <r>  -18.5787    1.0000 </r>
       <r>  -18.5773    1.0000 </r>
       <r>  -18.5737    1.0000 </r>
       <r>  -18.5610    1.0000 </r>
       <r>  -18.5550    1.0000 </r>
       <r>  -18.5523    1.0000 </r>
       <r>  -18.5464    1.0000 </r>
       <r>  -18.5242    1.0000 </r>
       <r>  -18.5238    1.0000 </r>
       <r>  -18.5220    1.0000 </r>
       <r>  -18.5195    1.0000 </r>
       <r>  -18.4985    1.0000 </r>
       <r>  -18.4971    1.0000 </r>
       <r>  -18.4964    1.0000 </r>
       <r>  -18.4928    1.0000 </r>
       <r>  -18.4388    1.0000 </r>
       <r>  -18.4363    1.0000 </r>
       <r>  -18.4358    1.0000 </r>
       <r>  -18.4299    1.0000 </r>
       <r>  -18.4262    1.0000 </r>
       <r>  -18.4238    1.0000 </r>
       <r>  -18.4049    1.0000 </r>
       <r>  -18.3989    1.0000 </r>
       <r>  -18.3533    1.0000 </r>
       <r>  -18.3514    1.0000 </r>
       <r>  -18.3495    1.0000 </r>
       <r>  -18.3481    1.0000 </r>
       <r>  -18.3387    1.0000 </r>
       <r>  -18.3349    1.0000 </r>
       <r>  -18.2605    1.0000 </r>
       <r>  -18.2543    1.0000 </r>
       <r>  -18.2338    1.0000 </r>
       <r>  -18.2308    1.0000 </r>
       <r>  -18.2192    1.0000 </r>
       <r>  -18.2162    1.0000 </r>
       <r>  -18.1520    1.0000 </r>
       <r>  -18.1462    1.0000 </r>
       <r>  -18.1253    1.0000 </r>
       <r>  -18.1195    1.0000 </r>
       <r>  -13.7357    1.0000 </r>
       <r>  -13.6015    1.0000 </r>
       <r>  -13.5721    1.0000 </r>
[...]
       <r>    8.7961    0.0000 </r>
       <r>    8.8402    0.0000 </r>
       <r>    8.8828    0.0000 </r>
       <r>    8.8972    0.0000 </r>
       <r>    8.9322    0.0000 </r>
       <r>    8.9374    0.0000 </r>
       <r>    8.9547    0.0000 </r>
       <r>    9.4080    0.0000 </r>
       <r>    9.8613    0.0000 </r>
      </set>
     </set>
    </set>
   </array>
  </eigenvalues>
  <separator name="orbital magnetization" >
   <v name="MAGDIPOLOUT">      0.00000000      0.00000000      0.00000000</v>
  </separator>
  <dos>
   <i name="efermi">      4.31854873 </i>
   <total>
    <array>
     <dimension dim="1">gridpoints</dimension>
     <dimension dim="2">spin</dimension>
     <field>energy</field>
     <field>total</field>
     <field>integrated</field>
     <set>
      <set comment="spin 1">
       <r>   -42.8358     0.0000     0.0000 </r>
       <r>   -42.6511     0.0000     0.0000 </r>
       <r>   -42.4663     0.0000     0.0000 </r>
       <r>   -42.2816     0.0000     0.0000 </r>
       <r>   -42.0969     0.0000     0.0000 </r>
       <r>   -41.9121     0.0000     0.0000 </r>
       <r>   -41.7274     0.0000     0.0000 </r>
       <r>   -41.5427     0.0000     0.0000 </r>
       <r>   -41.3579     0.0000     0.0000 </r>
       <r>   -41.1732     0.0000     0.0000 </r>
       <r>   -40.9884     0.0000     0.0000 </r>
       <r>   -40.8037     0.0000     0.0000 </r>
       <r>   -40.6190     0.0000     0.0000 </r>
       <r>   -40.4342     0.0000     0.0000 </r>
       <r>   -40.2495     0.0000     2.0000 </r>
       <r>   -40.0648     0.0000     6.0000 </r>
       <r>   -39.8800     0.0000     6.0000 </r>
       <r>   -39.6953     0.0000     6.0000 </r>
       <r>   -39.5105     0.0000    10.0000 </r>
       <r>   -39.3258     0.0000    12.0000 </r>
       <r>   -39.1411     0.0000    12.0000 </r>
       <r>   -38.9563     0.0000    12.0000 </r>
       <r>   -38.7716     0.0000    12.0000 </r>
       <r>   -38.5869     0.0000    12.0000 </r>
       <r>   -38.4021     0.0000    12.0000 </r>
       <r>   -38.2174     0.0000    12.0000 </r>
       <r>   -38.0326     0.0000    12.0000 </r>
       <r>   -37.8479     0.0000    12.0000 </r>
       <r>   -37.6632     0.0000    12.0000 </r>
       <r>   -37.4784     0.0000    12.0000 </r>
       <r>   -37.2937     0.0000    12.0000 </r>
       <r>   -37.1089     0.0000    12.0000 </r>
       <r>   -36.9242     0.0000    12.0000 </r>
       <r>   -36.7395     0.0000    12.0000 </r>
       <r>   -36.5547     0.0000    12.0000 </r>
       <r>   -36.3700     0.0000    12.0000 </r>
       <r>   -36.1853     0.0000    12.0000 </r>
       <r>   -36.0005     0.0000    12.0000 </r>
       <r>   -35.8158     0.0000    12.0000 </r>
       <r>   -35.6310     0.0000    12.0000 </r>
       <r>   -35.4463     0.0000    12.0000 </r>
       <r>   -35.2616     0.0000    12.0000 </r>
       <r>   -35.0768     0.0000    12.0000 </r>
       <r>   -34.8921     0.0000    12.0000 </r>
       <r>   -34.7074     0.0000    12.0000 </r>
       <r>   -34.5226     0.0000    12.0000 </r>
       <r>   -34.3379     0.0000    12.0000 </r>
       <r>   -34.1531     0.0000    12.0000 </r>
       <r>   -33.9684     0.0000    12.0000 </r>
       <r>   -33.7837     0.0000    12.0000 </r>
       <r>   -33.5989     0.0000    12.0000 </r>
       <r>   -33.4142     0.0000    12.0000 </r>
       <r>   -33.2294     0.0000    12.0000 </r>
       <r>   -33.0447     0.0000    12.0000 </r>
       <r>   -32.8600     0.0000    12.0000 </r>
       <r>   -32.6752     0.0000    12.0000 </r>
       <r>   -32.4905     0.0000    12.0000 </r>
       <r>   -32.3058     0.0000    12.0000 </r>
       <r>   -32.1210     0.0000    12.0000 </r>
       <r>   -31.9363     0.0000    12.0000 </r>
       <r>   -31.7515     0.0000    12.0000 </r>
       <r>   -31.5668     0.0000    12.0000 </r>
       <r>   -31.3821     0.0000    12.0000 </r>
       <r>   -31.1973     0.0000    12.0000 </r>
       <r>   -31.0126     0.0000    12.0000 </r>
       <r>   -30.8279     0.0000    12.0000 </r>
       <r>   -30.6431     0.0000    12.0000 </r>
       <r>   -30.4584     0.0000    12.0000 </r>
       <r>   -30.2736     0.0000    12.0000 </r>
       <r>   -30.0889     0.0000    12.0000 </r>
       <r>   -29.9042     0.0000    12.0000 </r>
       <r>   -29.7194     0.0000    12.0000 </r>
       <r>   -29.5347     0.0000    12.0000 </r>
       <r>   -29.3500     0.0000    12.0000 </r>
       <r>   -29.1652     0.0000    12.0000 </r>
       <r>   -28.9805     0.0000    12.0000 </r>
       <r>   -28.7957     0.0000    12.0000 </r>
       <r>   -28.6110     0.0000    12.0000 </r>
       <r>   -28.4263     0.0000    12.0000 </r>
       <r>   -28.2415     0.0000    12.0000 </r>
       <r>   -28.0568     0.0000    12.0000 </r>
       <r>   -27.8720     0.0000    12.0000 </r>
       <r>   -27.6873     0.0000    12.0000 </r>
       <r>   -27.5026     0.0000    12.0000 </r>
       <r>   -27.3178     0.0000    12.0000 </r>
       <r>   -27.1331     0.0000    12.0000 </r>
       <r>   -26.9484     0.0000    12.0000 </r>
       <r>   -26.7636     0.0000    12.0000 </r>
       <r>   -26.5789     0.0000    12.0000 </r>
       <r>   -26.3941     0.0000    12.0000 </r>
       <r>   -26.2094     0.0000    12.0000 </r>
       <r>   -26.0247     0.0000    12.0000 </r>
       <r>   -25.8399     0.0000    12.0000 </r>
       <r>   -25.6552     0.0000    12.0000 </r>
       <r>   -25.4705     0.0000    12.0000 </r>
       <r>   -25.2857     0.0000    12.0000 </r>
       <r>   -25.1010     0.0000    12.0000 </r>
       <r>   -24.9162     0.0000    12.0000 </r>
       <r>   -24.7315     0.0000    12.0000 </r>
       <r>   -24.5468     0.0000    12.0000 </r>
       <r>   -24.3620     0.0000    12.0000 </r>
       <r>   -24.1773     0.0000    12.0000 </r>
       <r>   -23.9925     0.0000    12.0000 </r>
       <r>   -23.8078     0.0000    12.0000 </r>
       <r>   -23.6231     0.0000    12.0000 </r>
       <r>   -23.4383     0.0000    12.0000 </r>
       <r>   -23.2536     0.0000    12.0000 </r>
       <r>   -23.0689     0.0000    12.0000 </r>
       <r>   -22.8841     0.0000    12.0000 </r>
       <r>   -22.6994     0.0000    12.0000 </r>
       <r>   -22.5146     0.0000    12.0000 </r>
       <r>   -22.3299     0.0000    12.0000 </r>
       <r>   -22.1452     0.0000    12.0000 </r>
       <r>   -21.9604     0.0000    12.0000 </r>
       <r>   -21.7757     0.0000    12.0000 </r>
       <r>   -21.5910     0.0000    12.0000 </r>
       <r>   -21.4062     0.0000    12.0000 </r>
       <r>   -21.2215     0.0000    12.0000 </r>
       <r>   -21.0367     0.0000    12.0000 </r>
       <r>   -20.8520     0.0000    12.0000 </r>
       <r>   -20.6673     0.0000    12.0000 </r>
       <r>   -20.4825     0.0000    12.0000 </r>
       <r>   -20.2978     0.0000    12.0000 </r>
       <r>   -20.1131     0.0000    12.0000 </r>
       <r>   -19.9283     0.0000    12.0000 </r>
       <r>   -19.7436     0.0000    12.0000 </r>
       <r>   -19.5588     0.0000    12.0000 </r>
       <r>   -19.3741     0.0000    12.0000 </r>
       <r>   -19.1894     0.0000    12.0000 </r>
       <r>   -19.0046     0.0000    16.0000 </r>
       <r>   -18.8199     0.0000    44.0000 </r>
       <r>   -18.6351     0.0000    88.0000 </r>
       <r>   -18.4504     0.0000   124.0000 </r>
       <r>   -18.2657     0.0000   152.0000 </r>
       <r>   -18.0809     0.0000   172.0000 </r>
       <r>   -17.8962     0.0000   172.0000 </r>
       <r>   -17.7115     0.0000   172.0000 </r>
       <r>   -17.5267     0.0000   172.0000 </r>
       <r>   -17.3420     0.0000   172.0000 </r>
       <r>   -17.1572     0.0000   172.0000 </r>
       <r>   -16.9725     0.0000   172.0000 </r>
       <r>   -16.7878     0.0000   172.0000 </r>
       <r>   -16.6030     0.0000   172.0000 </r>
       <r>   -16.4183     0.0000   172.0000 </r>
       <r>   -16.2336     0.0000   172.0000 </r>
       <r>   -16.0488     0.0000   172.0000 </r>
       <r>   -15.8641     0.0000   172.0000 </r>
       <r>   -15.6793     0.0000   172.0000 </r>
       <r>   -15.4946     0.0000   172.0000 </r>
       <r>   -15.3099     0.0000   172.0000 </r>
       <r>   -15.1251     0.0000   172.0000 </r>
       <r>   -14.9404     0.0000   172.0000 </r>
       <r>   -14.7556     0.0000   172.0000 </r>
       <r>   -14.5709     0.0000   172.0000 </r>
       <r>   -14.3862     0.0000   172.0000 </r>
       <r>   -14.2014     0.0000   172.0000 </r>
       <r>   -14.0167     0.0000   172.0000 </r>
       <r>   -13.8320     0.0000   172.0000 </r>
       <r>   -13.6472     0.0000   174.0000 </r>
       <r>   -13.4625     0.0000   180.0000 </r>
       <r>   -13.2777     0.0000   180.0000 </r>
       <r>   -13.0930     0.0000   180.0000 </r>
       <r>   -12.9083     0.0000   182.0000 </r>
       <r>   -12.7235   261.7292   188.0277 </r>
       <r>   -12.5388     0.0000   196.0000 </r>
       <r>   -12.3541     0.0000   196.0000 </r>
       <r>   -12.1693     0.0000   196.0000 </r>
       <r>   -11.9846     0.0000   198.0000 </r>
       <r>   -11.7998     0.0000   204.0000 </r>
       <r>   -11.6151     0.0000   204.0000 </r>
       <r>   -11.4304     0.0000   204.0000 </r>
       <r>   -11.2456     0.0000   204.0000 </r>
       <r>   -11.0609     0.0000   204.0000 </r>
       <r>   -10.8762     0.0000   204.0000 </r>
       <r>   -10.6914     0.0000   204.0000 </r>
       <r>   -10.5067     0.0000   204.0000 </r>
       <r>   -10.3219     0.0000   204.0000 </r>
       <r>   -10.1372     0.0000   204.0000 </r>
       <r>    -9.9525     0.0000   204.0000 </r>
       <r>    -9.7677     0.0000   204.0000 </r>
       <r>    -9.5830     0.0000   204.0000 </r>
       <r>    -9.3982     0.0000   204.0000 </r>
       <r>    -9.2135    11.2054   205.5100 </r>
       <r>    -9.0288    17.7949   207.4311 </r>
       <r>    -8.8440    10.1212   209.2834 </r>
       <r>    -8.6593    12.8706   211.8961 </r>
       <r>    -8.4746    33.2947   215.5015 </r>
       <r>    -8.2898    21.8988   219.9173 </r>
       <r>    -8.1051    11.3412   222.7834 </r>
       <r>    -7.9203    19.7812   227.4119 </r>
       <r>    -7.7356    13.1798   231.0299 </r>
       <r>    -7.5509    23.9712   233.7274 </r>
       <r>    -7.3661     0.0000   236.0000 </r>
       <r>    -7.1814     0.0000   236.0000 </r>
       <r>    -6.9967     0.0000   236.0000 </r>
       <r>    -6.8119     0.0000   236.0000 </r>
       <r>    -6.6272     0.0000   236.0000 </r>
       <r>    -6.4424     0.0000   236.0000 </r>
       <r>    -6.2577    20.8743   237.5440 </r>
       <r>    -6.0730    15.2934   242.2194 </r>
       <r>    -5.8882    13.3914   244.4058 </r>
       <r>    -5.7035    31.5605   248.9127 </r>
       <r>    -5.5187    16.6842   252.7634 </r>
       <r>    -5.3340    22.6233   256.3934 </r>
       <r>    -5.1493     9.8063   259.3440 </r>
       <r>    -4.9645     4.2685   260.2112 </r>
       <r>    -4.7798     8.5959   261.5453 </r>
       <r>    -4.5951    10.1257   263.3077 </r>
       <r>    -4.4103     8.6996   264.8026 </r>
       <r>    -4.2256     6.6777   266.0417 </r>
       <r>    -4.0408     4.9151   267.1737 </r>
       <r>    -3.8561     1.8621   267.7919 </r>
       <r>    -3.6714     0.3494   267.9897 </r>
       <r>    -3.4866     0.0000   268.0000 </r>
       <r>    -3.3019     0.0000   268.0000 </r>
       <r>    -3.1172     0.0000   268.0000 </r>
       <r>    -2.9324     0.0000   268.0000 </r>
       <r>    -2.7477     0.0000   268.0000 </r>
       <r>    -2.5629     0.0000   268.0000 </r>
       <r>    -2.3782     0.0000   268.0000 </r>
       <r>    -2.1935     0.0000   268.0000 </r>
       <r>    -2.0087     0.0000   268.0000 </r>
       <r>    -1.8240     0.0000   268.0000 </r>
       <r>    -1.6393     0.0000   268.0000 </r>
       <r>    -1.4545     1.7167   268.0676 </r>
       <r>    -1.2698     8.2368   268.9867 </r>
       <r>    -1.0850    10.7310   270.9012 </r>
       <r>    -0.9003    11.0784   273.0071 </r>
       <r>    -0.7156     7.4235   274.8100 </r>
       <r>    -0.5308    12.3191   276.8965 </r>
       <r>    -0.3461    22.6022   280.4289 </r>
       <r>    -0.1613    37.1481   285.9908 </r>
       <r>     0.0234    32.8031   292.7558 </r>
       <r>     0.2081    33.7590   298.8917 </r>
       <r>     0.3929    33.9213   304.5574 </r>
       <r>     0.5776    45.1894   311.9301 </r>
       <r>     0.7623    38.5494   319.1231 </r>
       <r>     0.9471    37.9127   327.4318 </r>
       <r>     1.1318    32.3723   336.1868 </r>
       <r>     1.3166    52.2201   344.7678 </r>
       <r>     1.5013    43.3572   352.4210 </r>
       <r>     1.6860    42.1758   360.5057 </r>
       <r>     1.8708    37.6330   367.7468 </r>
       <r>     2.0555    32.1899   374.6285 </r>
       <r>     2.2402    51.0471   382.9208 </r>
       <r>     2.4250    55.4138   392.4033 </r>
       <r>     2.6097    46.1819   403.0261 </r>
       <r>     2.7945    57.7863   412.9352 </r>
       <r>     2.9792    50.4287   424.5581 </r>
       <r>     3.1639    53.5299   433.9499 </r>
       <r>     3.3487    46.4222   442.6624 </r>
       <r>     3.5334    30.8675   449.1068 </r>
       <r>     3.7182    16.5740   453.4689 </r>
       <r>     3.9029    18.6900   456.5419 </r>
       <r>     4.0876     8.7724   459.3265 </r>
       <r>     4.2724     0.0359   459.9999 </r>
       <r>     4.4571     0.0000   460.0000 </r>
       <r>     4.6418     0.0000   460.0000 </r>
       <r>     4.8266     0.0000   460.0000 </r>
       <r>     5.0113     0.1117   460.0015 </r>
       <r>     5.1961     2.2267   460.1977 </r>
       <r>     5.3808     6.9468   461.0366 </r>
       <r>     5.5655     9.6898   462.7090 </r>
       <r>     5.7503    18.6907   464.7297 </r>
       <r>     5.9350    15.2782   468.4583 </r>
       <r>     6.1197    11.8751   470.8913 </r>
       <r>     6.3045    12.5639   473.0818 </r>
       <r>     6.4892    15.1502   475.6427 </r>
       <r>     6.6740    17.4131   478.6537 </r>
       <r>     6.8587    19.8770   482.0857 </r>
       <r>     7.0434    24.4487   486.1186 </r>
       <r>     7.2282    31.5579   491.3004 </r>
       <r>     7.4129    38.2771   497.0671 </r>
       <r>     7.5976    28.4257   502.5106 </r>
       <r>     7.7824    48.3927   509.0483 </r>
       <r>     7.9671    38.1006   518.3901 </r>
       <r>     8.1519    22.0606   523.4553 </r>
       <r>     8.3366    19.1939   527.1467 </r>
       <r>     8.5213    22.7653   531.0693 </r>
       <r>     8.7061    29.1439   535.8323 </r>
       <r>     8.8908    46.1322   543.3168 </r>
       <r>     9.0756    21.5187   549.1494 </r>
       <r>     9.2603    16.2307   552.5841 </r>
       <r>     9.4450    13.6554   555.4570 </r>
       <r>     9.6298    14.1056   557.6819 </r>
       <r>     9.8145     6.2261   559.3539 </r>
       <r>     9.9992     0.7311   559.9836 </r>
       <r>    10.1840     0.0000   560.0000 </r>
       <r>    10.3687     0.0000   560.0000 </r>
       <r>    10.5535     0.0000   560.0000 </r>
       <r>    10.7382     0.0000   560.0000 </r>
       <r>    10.9229     0.0000   560.0000 </r>
       <r>    11.1077     0.0000   560.0000 </r>
       <r>    11.2924     0.0000   560.0000 </r>
       <r>    11.4771     0.0000   560.0000 </r>
       <r>    11.6619     0.0000   560.0000 </r>
       <r>    11.8466     0.0000   560.0000 </r>
       <r>    12.0314     0.0000   560.0000 </r>
       <r>    12.2161     0.0000   560.0000 </r>
       <r>    12.4008     0.0000   560.0000 </r>
       <r>    12.5856     0.0000   560.0000 </r>
      </set>
     </set>
    </array>
   </total>
  </dos>
 </calculation>
 <structure name="finalpos" >
  <crystal>
   <varray name="basis" >
    <v>      11.17850000       0.00000000       0.00000000 </v>
    <v>       0.00000000       9.57460000       0.00000000 </v>
    <v>       0.00000000       0.00000000      11.18240000 </v>
   </varray>
   <i name="volume">   1196.84853820 </i>
   <varray name="rec_basis" >
    <v>       0.08945744       0.00000000       0.00000000 </v>
    <v>       0.00000000       0.10444301       0.00000000 </v>
    <v>       0.00000000       0.00000000       0.08942624 </v>
   </varray>
  </crystal>
  <varray name="positions" >
   <v>       0.37539000       0.00017000       0.43687000 </v>
   <v>       0.62539000       0.99984000       0.43687000 </v>
   <v>       0.87539000       0.00017000       0.43687000 </v>
   <v>       0.12461000       0.99984000       0.68687000 </v>
   <v>       0.37461000       0.00017000       0.68687000 </v>
   <v>       0.87461000       0.00017000       0.68687000 </v>
   <v>       0.12461000       0.99984000       0.18687000 </v>
   <v>       0.62461000       0.99984000       0.18687000 </v>
   <v>       0.37539000       0.00017000       0.93687000 </v>
   <v>       0.87539000       0.00017000       0.93687000 </v>
   <v>       0.62461000       0.99984000       0.68687000 </v>
   <v>       0.00013000       0.29519000       0.06281000 </v>
   <v>       0.25013000       0.70481000       0.06281000 </v>
   <v>       0.24987000       0.29519000       0.31282000 </v>
   <v>       0.49987000       0.70481000       0.31282000 </v>
   <v>       0.50013000       0.29519000       0.06281000 </v>
   <v>       0.75013000       0.70481000       0.06281000 </v>
   <v>       0.74987000       0.29519000       0.31282000 </v>
   <v>       0.99987000       0.70481000       0.31282000 </v>
   <v>       0.00013000       0.29519000       0.56281000 </v>
   <v>       0.25013000       0.70481000       0.56281000 </v>
   <v>       0.24987000       0.29519000       0.81282000 </v>
   <v>       0.49987000       0.70481000       0.81282000 </v>
   <v>       0.50013000       0.29519000       0.56281000 </v>
   <v>       0.75013000       0.70481000       0.56281000 </v>
   <v>       0.74987000       0.29519000       0.81282000 </v>
   <v>       0.99987000       0.70481000       0.81282000 </v>
   <v>       0.25005000       0.32677000       0.06286000 </v>
   <v>       0.00005000       0.67323000       0.06286000 </v>
   <v>       0.49995000       0.32677000       0.31286000 </v>
   <v>       0.24995000       0.67323000       0.31286000 </v>
   <v>       0.75005000       0.32677000       0.06286000 </v>
   <v>       0.50005000       0.67323000       0.06286000 </v>
   <v>       0.99995000       0.32677000       0.31286000 </v>
   <v>       0.74995000       0.67323000       0.31286000 </v>
   <v>       0.25005000       0.32677000       0.56286000 </v>
   <v>       0.00005000       0.67323000       0.56286000 </v>
   <v>       0.49995000       0.32677000       0.81286000 </v>
   <v>       0.24995000       0.67323000       0.81286000 </v>
   <v>       0.75005000       0.32677000       0.56286000 </v>
   <v>       0.50005000       0.67323000       0.56286000 </v>
   <v>       0.99995000       0.32677000       0.81286000 </v>
   <v>       0.74995000       0.67323000       0.81286000 </v>
   <v>       0.49987000       0.07798000       0.06246000 </v>
   <v>       0.24987000       0.92202000       0.06246000 </v>
   <v>       0.25013000       0.07798000       0.31246000 </v>
   <v>       0.00013000       0.92202000       0.31246000 </v>
   <v>       0.99987000       0.07798000       0.06246000 </v>
   <v>       0.74987000       0.92202000       0.06246000 </v>
   <v>       0.75013000       0.07798000       0.31246000 </v>
   <v>       0.50013000       0.92202000       0.31246000 </v>
   <v>       0.49987000       0.07798000       0.56246000 </v>
   <v>       0.24987000       0.92202000       0.56246000 </v>
   <v>       0.25013000       0.07798000       0.81246000 </v>
   <v>       0.00013000       0.92202000       0.81246000 </v>
   <v>       0.99987000       0.07798000       0.56246000 </v>
   <v>       0.74987000       0.92202000       0.56246000 </v>
   <v>       0.75013000       0.07798000       0.81246000 </v>
   <v>       0.50013000       0.92202000       0.81246000 </v>
  </varray>
 </structure>
</modeling>
