<?xml version="1.0" encoding="ISO-8859-1"?>
<modeling>
 <generator>
  <i name="program" type="string">vasp </i>
  <i name="version" type="string">5.4.4.18Apr17-6-g9f103f2a35  </i>
  <i name="subversion" type="string">(build Jul 31 2017 11:33:29) complex            parallel </i>
  <i name="platform" type="string">LinuxIFC </i>
  <i name="date" type="string">2021 09 25 </i>
  <i name="time" type="string">00:56:08 </i>
 </generator>
 <incar>
  <i type="string" name="SYSTEM"> La2O2S</i>
  <i type="string" name="PREC">normal</i>
  <i type="int" name="NELMIN">     4</i>
  <i type="int" name="IBRION">     2</i>
  <i type="int" name="NFREE">    10</i>
  <i name="EDIFF">      0.00000100</i>
  <i name="EDIFFG">     -0.01000000</i>
  <i type="int" name="NSW">   200</i>
  <i type="int" name="ISIF">     3</i>
  <i name="ENCUT">    600.00000000</i>
  <i name="ENAUG">    900.00000000</i>
  <i type="int" name="ISMEAR">    -5</i>
  <i type="logical" name="LWAVE"> F  </i>
  <i type="logical" name="LCHARG"> F  </i>
  <v type="int" name="KPOINT_BSE">    -1     0     0     0</v>
 </incar>
 <structure name="primitive_cell" >
  <crystal>
   <varray name="basis" >
    <v>      11.17850000       0.00000000       0.00000000 </v>
    <v>       0.00000000       9.57460000       0.00000000 </v>
    <v>       0.00000000       0.00000000      11.18240000 </v>
   </varray>
   <i name="volume">   1196.84853820 </i>
   <varray name="rec_basis" >
    <v>       0.08945744       0.00000000       0.00000000 </v>
    <v>       0.00000000       0.10444301       0.00000000 </v>
    <v>       0.00000000       0.00000000       0.08942624 </v>
   </varray>
  </crystal>
  <varray name="positions" >
   <v>       0.37539000       0.00017000       0.43687000 </v>
   <v>      -0.49987000      -0.07798000       0.31246000 </v>
   <v>       0.25013000       0.07798000       0.31246000 </v>
   <v>       0.49987000       0.07798000      -0.43754000 </v>
   <v>       0.24987000      -0.07798000      -0.43754000 </v>
   <v>      -0.37461000      -0.00017000       0.43687000 </v>
   <v>       0.37461000       0.00017000       0.18687000 </v>
   <v>       0.37461000       0.00017000      -0.31313000 </v>
   <v>       0.49987000      -0.29519000       0.31282000 </v>
   <v>       0.24987000       0.29519000       0.31282000 </v>
   <v>      -0.49987000       0.29519000      -0.43718000 </v>
   <v>       0.25013000      -0.29519000      -0.43718000 </v>
   <v>       0.49995000       0.32677000       0.31286000 </v>
   <v>       0.24995000      -0.32677000       0.31286000 </v>
   <v>      -0.49995000      -0.32677000      -0.43714000 </v>
   <v>       0.25005000       0.32677000      -0.43714000 </v>
   <v>      -0.37539000      -0.00017000       0.18687000 </v>
   <v>      -0.37539000      -0.00017000      -0.31313000 </v>
   <v>       0.12461000      -0.00017000       0.18687000 </v>
   <v>       0.12461000      -0.00017000      -0.31313000 </v>
   <v>       0.49987000       0.07798000       0.06246000 </v>
   <v>      -0.24987000       0.07798000       0.31246000 </v>
   <v>      -0.25013000      -0.07798000      -0.43754000 </v>
   <v>       0.24987000      -0.07798000       0.06246000 </v>
   <v>       0.00013000      -0.07798000       0.31246000 </v>
   <v>      -0.49987000      -0.07798000      -0.18754000 </v>
   <v>      -0.00013000       0.07798000      -0.43754000 </v>
   <v>       0.25013000       0.07798000      -0.18754000 </v>
   <v>      -0.49987000       0.29519000       0.06282000 </v>
   <v>      -0.25013000       0.29519000       0.31282000 </v>
   <v>       0.25013000      -0.29519000       0.06282000 </v>
   <v>      -0.24987000      -0.29519000      -0.43718000 </v>
   <v>      -0.00013000      -0.29519000       0.31282000 </v>
   <v>       0.00013000       0.29519000      -0.43718000 </v>
   <v>       0.49987000      -0.29519000      -0.18718000 </v>
   <v>       0.24987000       0.29519000      -0.18718000 </v>
   <v>      -0.49995000      -0.32677000       0.06286000 </v>
   <v>       0.25005000       0.32677000       0.06286000 </v>
   <v>      -0.25005000      -0.32677000       0.31286000 </v>
   <v>      -0.24995000       0.32677000      -0.43714000 </v>
   <v>      -0.00005000       0.32677000       0.31286000 </v>
   <v>       0.00005000      -0.32677000      -0.43714000 </v>
   <v>       0.49995000       0.32677000      -0.18714000 </v>
   <v>       0.24995000      -0.32677000      -0.18714000 </v>
   <v>      -0.12461000       0.00017000       0.43687000 </v>
   <v>       0.37539000       0.00017000      -0.06313000 </v>
   <v>      -0.25013000      -0.07798000       0.06246000 </v>
   <v>      -0.00013000       0.07798000       0.06246000 </v>
   <v>      -0.24987000       0.07798000      -0.18754000 </v>
   <v>       0.00013000      -0.07798000      -0.18754000 </v>
   <v>      -0.12539000       0.00017000       0.18687000 </v>
   <v>      -0.12539000       0.00017000      -0.31313000 </v>
   <v>       0.12539000      -0.00017000      -0.06313000 </v>
   <v>      -0.37461000      -0.00017000      -0.06313000 </v>
   <v>      -0.24987000      -0.29519000       0.06282000 </v>
   <v>       0.00013000       0.29519000       0.06282000 </v>
   <v>      -0.25013000       0.29519000      -0.18718000 </v>
   <v>      -0.00013000      -0.29519000      -0.18718000 </v>
   <v>      -0.24995000       0.32677000       0.06286000 </v>
   <v>       0.00005000      -0.32677000       0.06286000 </v>
   <v>      -0.25005000      -0.32677000      -0.18714000 </v>
   <v>      -0.00005000       0.32677000      -0.18714000 </v>
   <v>      -0.12461000       0.00017000      -0.06313000 </v>
  </varray>
 </structure>
 <varray name="primitive_index" >
  <v type="int" >        1 </v>
  <v type="int" >       53 </v>
  <v type="int" >       51 </v>
  <v type="int" >       56 </v>
  <v type="int" >       58 </v>
  <v type="int" >        4 </v>
  <v type="int" >        3 </v>
  <v type="int" >       10 </v>
  <v type="int" >       19 </v>
  <v type="int" >       18 </v>
  <v type="int" >       28 </v>
  <v type="int" >       25 </v>
  <v type="int" >       34 </v>
  <v type="int" >       35 </v>
  <v type="int" >       45 </v>
  <v type="int" >       40 </v>
  <v type="int" >        6 </v>
  <v type="int" >       13 </v>
  <v type="int" >        2 </v>
  <v type="int" >        9 </v>
  <v type="int" >       48 </v>
  <v type="int" >       55 </v>
  <v type="int" >       62 </v>
  <v type="int" >       50 </v>
  <v type="int" >       49 </v>
  <v type="int" >       61 </v>
  <v type="int" >       60 </v>
  <v type="int" >       59 </v>
  <v type="int" >       20 </v>
  <v type="int" >       22 </v>
  <v type="int" >       17 </v>
  <v type="int" >       29 </v>
  <v type="int" >       23 </v>
  <v type="int" >       24 </v>
  <v type="int" >       27 </v>
  <v type="int" >       26 </v>
  <v type="int" >       37 </v>
  <v type="int" >       32 </v>
  <v type="int" >       39 </v>
  <v type="int" >       44 </v>
  <v type="int" >       38 </v>
  <v type="int" >       41 </v>
  <v type="int" >       42 </v>
  <v type="int" >       43 </v>
  <v type="int" >        5 </v>
  <v type="int" >       15 </v>
  <v type="int" >       54 </v>
  <v type="int" >       52 </v>
  <v type="int" >       63 </v>
  <v type="int" >       57 </v>
  <v type="int" >        7 </v>
  <v type="int" >       14 </v>
  <v type="int" >        8 </v>
  <v type="int" >       11 </v>
  <v type="int" >       21 </v>
  <v type="int" >       16 </v>
  <v type="int" >       30 </v>
  <v type="int" >       31 </v>
  <v type="int" >       36 </v>
  <v type="int" >       33 </v>
  <v type="int" >       47 </v>
  <v type="int" >       46 </v>
  <v type="int" >       12 </v>
 </varray>
 <kpoints>
  <generation param="Gamma">
   <v type="int" name="divisions">       2        2        2 </v>
   <v name="usershift">      0.00000000       0.00000000       0.00000000 </v>
   <v name="genvec1">      0.50000000       0.00000000       0.00000000 </v>
   <v name="genvec2">      0.00000000       0.50000000       0.00000000 </v>
   <v name="genvec3">      0.00000000       0.00000000       0.50000000 </v>
   <v name="shift">      0.00000000       0.00000000       0.00000000 </v>
  </generation>
  <varray name="kpointlist" >
   <v>       0.00000000       0.00000000       0.00000000 </v>
   <v>       0.50000000       0.00000000       0.00000000 </v>
   <v>       0.00000000       0.50000000       0.00000000 </v>
   <v>       0.50000000       0.50000000       0.00000000 </v>
   <v>       0.00000000       0.00000000       0.50000000 </v>
   <v>       0.50000000       0.00000000       0.50000000 </v>
   <v>       0.00000000       0.50000000       0.50000000 </v>
   <v>       0.50000000       0.50000000       0.50000000 </v>
  </varray>
  <varray name="weights" >
   <v>       0.12500000 </v>
   <v>       0.12500000 </v>
   <v>       0.12500000 </v>
   <v>       0.12500000 </v>
   <v>       0.12500000 </v>
   <v>       0.12500000 </v>
   <v>       0.12500000 </v>
   <v>       0.12500000 </v>
  </varray>
  <varray name="tetrahedronlist"  type="int" >
   <v type="int" >        2        1        2        4        5 </v>
   <v type="int" >        2        1        3        4        5 </v>
   <v type="int" >        2        3        4        5        7 </v>
   <v type="int" >        2        2        4        5        6 </v>
   <v type="int" >        2        4        5        6        8 </v>
   <v type="int" >        2        4        5        7        8 </v>
   <v type="int" >        2        1        2        3        6 </v>
   <v type="int" >        2        2        3        4        6 </v>
   <v type="int" >        2        3        4        6        8 </v>
   <v type="int" >        2        1        3        5        6 </v>
   <v type="int" >        2        3        5        6        7 </v>
   <v type="int" >        2        3        6        7        8 </v>
   <v type="int" >        2        2        3        4        7 </v>
   <v type="int" >        2        1        2        3        7 </v>
   <v type="int" >        2        1        2        5        7 </v>
   <v type="int" >        2        2        4        7        8 </v>
   <v type="int" >        2        2        6        7        8 </v>
   <v type="int" >        2        2        5        6        7 </v>
   <v type="int" >        2        1        3        4        8 </v>
   <v type="int" >        2        1        2        4        8 </v>
   <v type="int" >        2        1        2        6        8 </v>
   <v type="int" >        2        1        3        7        8 </v>
   <v type="int" >        2        1        5        7        8 </v>
   <v type="int" >        2        1        5        6        8 </v>
  </varray>
  <i name="volumeweight">      0.02083333 </i>
 </kpoints>
 <parameters>
  <separator name="general" >
   <i type="string" name="SYSTEM">La2O2S</i>
   <i type="logical" name="LCOMPAT"> F  </i>
  </separator>
  <separator name="electronic" >
   <i type="string" name="PREC">normal</i>
   <i name="ENMAX">    600.00000000</i>
   <i name="ENAUG">    900.00000000</i>
   <i name="EDIFF">      0.00000100</i>
   <i type="int" name="IALGO">    38</i>
   <i type="int" name="IWAVPR">    11</i>
   <i type="int" name="NBANDS">   308</i>
   <i name="NELECT">    476.00000000</i>
   <i type="int" name="TURBO">     0</i>
   <i type="int" name="IRESTART">     0</i>
   <i type="int" name="NREBOOT">     0</i>
   <i type="int" name="NMIN">     0</i>
   <i name="EREF">      0.00000000</i>
   <separator name="electronic smearing" >
    <i type="int" name="ISMEAR">    -5</i>
    <i name="SIGMA">      0.20000000</i>
    <i name="KSPACING">      0.50000000</i>
    <i type="logical" name="KGAMMA"> T  </i>
   </separator>
   <separator name="electronic projectors" >
    <i type="logical" name="LREAL"> F  </i>
    <v name="ROPT">      0.00000000      0.00000000      0.00000000      0.00000000      0.00000000</v>
    <i type="int" name="LMAXPAW">  -100</i>
    <i type="int" name="LMAXMIX">     2</i>
    <i type="logical" name="NLSPLINE"> F  </i>
   </separator>
   <separator name="electronic startup" >
    <i type="int" name="ISTART">     0</i>
    <i type="int" name="ICHARG">     2</i>
    <i type="int" name="INIWAV">     1</i>
   </separator>
   <separator name="electronic spin" >
    <i type="int" name="ISPIN">     1</i>
    <i type="logical" name="LNONCOLLINEAR"> F  </i>
    <v name="MAGMOM">      1.00000000      1.00000000      1.00000000      1.00000000      1.00000000      1.00000000      1.00000000      1.00000000      1.00000000      1.00000000      1.00000000      1.00000000      1.00000000      1.00000000      1.00000000      1.00000000      1.00000000      1.00000000      1.00000000      1.00000000
      1.00000000      1.00000000      1.00000000      1.00000000      1.00000000      1.00000000      1.00000000      1.00000000      1.00000000      1.00000000      1.00000000      1.00000000      1.00000000      1.00000000      1.00000000      1.00000000      1.00000000      1.00000000      1.00000000      1.00000000
      1.00000000      1.00000000      1.00000000      1.00000000      1.00000000      1.00000000      1.00000000      1.00000000      1.00000000      1.00000000      1.00000000      1.00000000      1.00000000      1.00000000      1.00000000      1.00000000      1.00000000      1.00000000      1.00000000      1.00000000
      1.00000000      1.00000000      1.00000000</v>
    <i name="NUPDOWN">     -1.00000000</i>
    <i type="logical" name="LSORBIT"> F  </i>
    <v name="SAXIS">      0.00000000      0.00000000      1.00000000</v>
    <i type="logical" name="LSPIRAL"> F  </i>
    <v name="QSPIRAL">      0.00000000      0.00000000      0.00000000</v>
    <i type="logical" name="LZEROZ"> F  </i>
   </separator>
   <separator name="electronic exchange-correlation" >
    <i type="logical" name="LASPH"> F  </i>
    <i type="logical" name="LMETAGGA"> F  </i>
   </separator>
   <separator name="electronic convergence" >
    <i type="int" name="NELM">    60</i>
    <i type="int" name="NELMDL">    -5</i>
    <i type="int" name="NELMIN">     4</i>
    <i name="ENINI">    600.00000000</i>
    <separator name="electronic convergence detail" >
     <i type="logical" name="LDIAG"> T  </i>
     <i type="logical" name="LSUBROT"> F  </i>
     <i name="WEIMIN">      0.00100000</i>
     <i name="EBREAK">      0.00000000</i>
     <i name="DEPER">      0.30000000</i>
     <i type="int" name="NRMM">     4</i>
     <i name="TIME">      0.40000000</i>
    </separator>
   </separator>
   <separator name="electronic mixer" >
    <i name="AMIX">      0.40000000</i>
    <i name="BMIX">      1.00000000</i>
    <i name="AMIN">      0.10000000</i>
    <i name="AMIX_MAG">      1.60000000</i>
    <i name="BMIX_MAG">      1.00000000</i>
    <separator name="electronic mixer details" >
     <i type="int" name="IMIX">     4</i>
     <i type="logical" name="MIXFIRST"> F  </i>
     <i type="int" name="MAXMIX">   -45</i>
     <i name="WC">    100.00000000</i>
     <i type="int" name="INIMIX">     1</i>
     <i type="int" name="MIXPRE">     1</i>
     <i type="int" name="MREMOVE">     5</i>
    </separator>
   </separator>
   <separator name="electronic dipolcorrection" >
    <i type="logical" name="LDIPOL"> F  </i>
    <i type="logical" name="LMONO"> F  </i>
    <i type="int" name="IDIPOL">     0</i>
    <i name="EPSILON">      1.00000000</i>
    <v name="DIPOL">   -100.00000000   -100.00000000   -100.00000000</v>
    <i name="EFIELD">      0.00000000</i>
   </separator>
  </separator>
  <separator name="grids" >
   <i type="int" name="NGX">    70</i>
   <i type="int" name="NGY">    60</i>
   <i type="int" name="NGZ">    70</i>
   <i type="int" name="NGXF">   140</i>
   <i type="int" name="NGYF">   120</i>
   <i type="int" name="NGZF">   140</i>
   <i type="logical" name="ADDGRID"> F  </i>
  </separator>
  <separator name="ionic" >
   <i type="int" name="NSW">   200</i>
   <i type="int" name="IBRION">     2</i>
   <i type="int" name="MDALGO">     0</i>
   <i type="int" name="ISIF">     3</i>
   <i name="PSTRESS">      0.00000000</i>
   <i name="EDIFFG">     -0.01000000</i>
   <i type="int" name="NFREE">    10</i>
   <i name="POTIM">      0.50000000</i>
   <i name="SMASS">     -3.00000000</i>
   <i name="SCALEE">      1.00000000</i>
  </separator>
  <separator name="ionic md" >
   <i name="TEBEG">      0.00010000</i>
   <i name="TEEND">      0.00010000</i>
   <i type="int" name="NBLOCK">     1</i>
   <i type="int" name="KBLOCK">   200</i>
   <i type="int" name="NPACO">   256</i>
   <i name="APACO">     16.00000000</i>
  </separator>
  <separator name="symmetry" >
   <i type="int" name="ISYM">     2</i>
   <i name="SYMPREC">      0.00001000</i>
  </separator>
  <separator name="dos" >
   <i type="int" name="LORBIT">     0</i>
   <v name="RWIGS">     -1.00000000     -1.00000000     -1.00000000     -1.00000000     -1.00000000</v>
   <i type="int" name="NEDOS">   301</i>
   <i name="EMIN">     10.00000000</i>
   <i name="EMAX">    -10.00000000</i>
   <i name="EFERMI">      0.00000000</i>
  </separator>
  <separator name="writing" >
   <i type="int" name="NWRITE">     2</i>
   <i type="logical" name="LWAVE"> F  </i>
   <i type="logical" name="LDOWNSAMPLE"> F  </i>
   <i type="logical" name="LCHARG"> F  </i>
   <i type="logical" name="LPARD"> F  </i>
   <i type="logical" name="LVTOT"> F  </i>
   <i type="logical" name="LVHAR"> F  </i>
   <i type="logical" name="LELF"> F  </i>
   <i type="logical" name="LOPTICS"> F  </i>
   <v name="STM">      0.00000000      0.00000000      0.00000000      0.00000000      0.00000000      0.00000000      0.00000000</v>
  </separator>
  <separator name="performance" >
   <i type="int" name="NPAR">    28</i>
   <i type="int" name="NSIM">     4</i>
   <i type="int" name="NBLK">    -1</i>
   <i type="logical" name="LPLANE"> T  </i>
   <i type="logical" name="LSCALAPACK"> T  </i>
   <i type="logical" name="LSCAAWARE"> F  </i>
   <i type="logical" name="LSCALU"> F  </i>
   <i type="logical" name="LASYNC"> F  </i>
   <i type="logical" name="LORBITALREAL"> F  </i>
  </separator>
  <separator name="miscellaneous" >
   <i type="int" name="IDIOT">     3</i>
   <i type="int" name="ISPECIAL">     0</i>
   <i type="logical" name="LMUSIC"> F  </i>
   <v name="POMASS">      7.01000000     24.30500000    208.98000000     32.06600000     16.00000000</v>
   <v name="DARWINR">      0.00000000      0.00000000      0.00000000      0.00000000      0.00000000</v>
   <v name="DARWINV">      1.00000000      1.00000000      1.00000000      1.00000000      1.00000000</v>
   <i type="logical" name="LCORR"> T  </i>
  </separator>
  <i type="logical" name="GGA_COMPAT"> T  </i>
  <i type="logical" name="LBERRY"> F  </i>
  <i type="int" name="ICORELEVEL">     0</i>
  <i type="logical" name="LDAU"> F  </i>
  <i type="int" name="I_CONSTRAINED_M">     0</i>
  <separator name="electronic exchange-correlation" >
   <i type="string" name="GGA">--</i>
   <i type="int" name="VOSKOWN">     0</i>
   <i type="logical" name="LHFCALC"> F  </i>
   <i type="string" name="PRECFOCK"></i>
   <i type="logical" name="LSYMGRAD"> F  </i>
   <i type="logical" name="LHFONE"> F  </i>
   <i type="logical" name="LRHFCALC"> F  </i>
   <i type="logical" name="LTHOMAS"> F  </i>
   <i type="logical" name="LMODELHF"> F  </i>
   <i name="ENCUT4O">     -1.00000000</i>
   <i type="int" name="EXXOEP">     0</i>
   <i type="int" name="FOURORBIT">     0</i>
   <i name="AEXX">      0.00000000</i>
   <i name="HFALPHA">      0.00000000</i>
   <i name="MCALPHA">      0.00000000</i>
   <i name="ALDAX">      1.00000000</i>
   <i name="AGGAX">      1.00000000</i>
   <i name="ALDAC">      1.00000000</i>
   <i name="AGGAC">      1.00000000</i>
   <i type="int" name="NKREDX">     1</i>
   <i type="int" name="NKREDY">     1</i>
   <i type="int" name="NKREDZ">     1</i>
   <i type="logical" name="SHIFTRED"> F  </i>
   <i type="logical" name="ODDONLY"> F  </i>
   <i type="logical" name="EVENONLY"> F  </i>
   <i type="int" name="LMAXFOCK">     0</i>
   <i type="int" name="NMAXFOCKAE">     0</i>
   <i type="logical" name="LFOCKAEDFT"> F  </i>
   <i name="HFSCREEN">      0.00000000</i>
   <i name="HFSCREENC">      0.00000000</i>
   <i type="int" name="NBANDSGWLOW">     0</i>
  </separator>
  <separator name="vdW DFT" >
   <i type="logical" name="LUSE_VDW"> F  </i>
   <i name="Zab_VDW">     -0.84910000</i>
   <i name="PARAM1">      0.12340000</i>
   <i name="PARAM2">      1.00000000</i>
   <i name="PARAM3">      0.00000000</i>
  </separator>
  <separator name="model GW" >
   <i type="int" name="MODEL_GW">     0</i>
   <i name="MODEL_EPS0">     11.39855751</i>
   <i name="MODEL_ALPHA">      1.00000000</i>
  </separator>
  <separator name="linear response parameters" >
   <i type="logical" name="LEPSILON"> F  </i>
   <i type="logical" name="LRPA"> F  </i>
   <i type="logical" name="LNABLA"> F  </i>
   <i type="logical" name="LVEL"> F  </i>
   <i type="int" name="KINTER">     0</i>
   <i name="CSHIFT">      0.10000000</i>
   <i name="OMEGAMAX">     -1.00000000</i>
   <i name="DEG_THRESHOLD">      0.00200000</i>
   <i name="RTIME">     -0.10000000</i>
   <i name="WPLASMAI">      0.00000000</i>
   <v name="DFIELD">      0.00000000      0.00000000      0.00000000</v>
   <v name="WPLASMA">      0.00000000      0.00000000      0.00000000      0.00000000      0.00000000      0.00000000      0.00000000      0.00000000      0.00000000</v>
  </separator>
  <separator name="orbital magnetization" >
   <i type="logical" name="NUCIND"> F  </i>
   <v name="MAGPOS">      0.00000000      0.00000000      0.00000000</v>
   <i type="logical" name="LNICSALL"> T  </i>
   <i type="logical" name="ORBITALMAG"> F  </i>
   <i type="logical" name="LMAGBLOCH"> F  </i>
   <i type="logical" name="LCHIMAG"> F  </i>
   <i type="logical" name="LGAUGE"> T  </i>
   <i type="int" name="MAGATOM">     0</i>
   <v name="MAGDIPOL">      0.00000000      0.00000000      0.00000000</v>
   <v name="AVECCONST">      0.00000000      0.00000000      0.00000000</v>
  </separator>
  <separator name="response functions" >
   <i type="logical" name="LADDER"> F  </i>
   <i type="logical" name="LRPAFORCE"> F  </i>
   <i type="logical" name="LFXC"> F  </i>
   <i type="logical" name="LHARTREE"> T  </i>
   <i type="int" name="IBSE">     0</i>
   <v type="int" name="KPOINT">    -1     0     0     0</v>
   <i type="logical" name="LTCTE"> F  </i>
   <i type="logical" name="LTETE"> F  </i>
   <i type="logical" name="LTRIPLET"> F  </i>
   <i type="logical" name="LFXCEPS"> F  </i>
   <i type="logical" name="LFXHEG"> F  </i>
   <i type="int" name="NATURALO">     2</i>
   <i type="logical" name="L2ORDER"> F  </i>
   <i type="logical" name="LMP2LT"> F  </i>
   <i type="logical" name="LUSEW"> F  </i>
   <i name="ENCUTGW">     -2.00000000</i>
   <i name="ENCUTGWSOFT">     -2.00000000</i>
   <i name="ENCUTLF">     -1.00000000</i>
   <i type="int" name="LMAXMP2">    -1</i>
   <i name="SCISSOR">      0.00000000</i>
   <i type="int" name="NOMEGA">     0</i>
   <i type="int" name="NOMEGAR">     0</i>
   <i type="int" name="NBANDSGW">    -1</i>
   <i type="int" name="NBANDSO">    -1</i>
   <i type="int" name="NBANDSV">    -1</i>
   <i type="int" name="NELM">     1</i>
   <i type="int" name="NELMHF">     1</i>
   <i type="int" name="DIM">     3</i>
   <i type="int" name="ANTIRES">     0</i>
   <i name="OMEGAMAX">    -30.00000000</i>
   <i name="OMEGAMIN">    -30.00000000</i>
   <i name="OMEGATL">   -200.00000000</i>
   <i type="int" name="OMEGAGRID">   140</i>
   <i name="CSHIFT">     -0.10000000</i>
   <i type="logical" name="SELFENERGY"> F  </i>
   <i type="logical" name="LSPECTRAL"> F  </i>
   <i type="logical" name="LSPECTRALGW"> F  </i>
   <i type="logical" name="LSINGLES"> F  </i>
   <i type="logical" name="LFERMIGW"> F  </i>
   <i type="logical" name="ODDONLYGW"> F  </i>
   <i type="logical" name="EVENONLYGW"> F  </i>
   <i type="int" name="NKREDLFX">     1</i>
   <i type="int" name="NKREDLFY">     1</i>
   <i type="int" name="NKREDLFZ">     1</i>
   <i type="int" name="MAXMEM">  2800</i>
   <i type="int" name="TELESCOPE">     0</i>
   <i type="int" name="TAUPAR">     1</i>
   <i type="int" name="OMEGAPAR">    -1</i>
   <i name="LAMBDA">      1.00000000</i>
  </separator>
  <separator name="External order field" >
   <i name="OFIELD_KAPPA">      0.00000000</i>
   <v name="OFIELD_K">      0.00000000      0.00000000      0.00000000</v>
   <i name="OFIELD_Q6_NEAR">      0.00000000</i>
   <i name="OFIELD_Q6_FAR">      0.00000000</i>
   <i name="OFIELD_A">      0.00000000</i>
  </separator>
 </parameters>
 <atominfo>
  <atoms>      63 </atoms>
  <types>       5 </types>
  <array name="atoms" >
   <dimension dim="1">ion</dimension>
   <field type="string">element</field>
   <field type="int">atomtype</field>
   <set>
    <rc><c>Li</c><c>   1</c></rc>
    <rc><c>Li</c><c>   1</c></rc>
    <rc><c>Li</c><c>   1</c></rc>
    <rc><c>Li</c><c>   1</c></rc>
    <rc><c>Li</c><c>   1</c></rc>
    <rc><c>Li</c><c>   1</c></rc>
    <rc><c>Li</c><c>   1</c></rc>
    <rc><c>Li</c><c>   1</c></rc>
    <rc><c>Li</c><c>   1</c></rc>
    <rc><c>Li</c><c>   1</c></rc>
    <rc><c>Li</c><c>   1</c></rc>
    <rc><c>Li</c><c>   1</c></rc>
    <rc><c>Li</c><c>   1</c></rc>
    <rc><c>Li</c><c>   1</c></rc>
    <rc><c>Mg</c><c>   2</c></rc>
    <rc><c>Bi</c><c>   3</c></rc>
    <rc><c>Bi</c><c>   3</c></rc>
    <rc><c>Bi</c><c>   3</c></rc>
    <rc><c>Bi</c><c>   3</c></rc>
    <rc><c>Bi</c><c>   3</c></rc>
    <rc><c>Bi</c><c>   3</c></rc>
    <rc><c>Bi</c><c>   3</c></rc>
    <rc><c>Bi</c><c>   3</c></rc>
    <rc><c>Bi</c><c>   3</c></rc>
    <rc><c>Bi</c><c>   3</c></rc>
    <rc><c>Bi</c><c>   3</c></rc>
    <rc><c>Bi</c><c>   3</c></rc>
    <rc><c>Bi</c><c>   3</c></rc>
    <rc><c>Bi</c><c>   3</c></rc>
    <rc><c>Bi</c><c>   3</c></rc>
    <rc><c>Bi</c><c>   3</c></rc>
    <rc><c>S </c><c>   4</c></rc>
    <rc><c>S </c><c>   4</c></rc>
    <rc><c>S </c><c>   4</c></rc>
    <rc><c>S </c><c>   4</c></rc>
    <rc><c>S </c><c>   4</c></rc>
    <rc><c>S </c><c>   4</c></rc>
    <rc><c>S </c><c>   4</c></rc>
    <rc><c>S </c><c>   4</c></rc>
    <rc><c>S </c><c>   4</c></rc>
    <rc><c>S </c><c>   4</c></rc>
    <rc><c>S </c><c>   4</c></rc>
    <rc><c>S </c><c>   4</c></rc>
    <rc><c>S </c><c>   4</c></rc>
    <rc><c>S </c><c>   4</c></rc>
    <rc><c>S </c><c>   4</c></rc>
    <rc><c>S </c><c>   4</c></rc>
    <rc><c>O </c><c>   5</c></rc>
    <rc><c>O </c><c>   5</c></rc>
    <rc><c>O </c><c>   5</c></rc>
    <rc><c>O </c><c>   5</c></rc>
    <rc><c>O </c><c>   5</c></rc>
    <rc><c>O </c><c>   5</c></rc>
    <rc><c>O </c><c>   5</c></rc>
    <rc><c>O </c><c>   5</c></rc>
    <rc><c>O </c><c>   5</c></rc>
    <rc><c>O </c><c>   5</c></rc>
    <rc><c>O </c><c>   5</c></rc>
    <rc><c>O </c><c>   5</c></rc>
    <rc><c>O </c><c>   5</c></rc>
    <rc><c>O </c><c>   5</c></rc>
    <rc><c>O </c><c>   5</c></rc>
    <rc><c>O </c><c>   5</c></rc>
   </set>
  </array>
  <array name="atomtypes" >
   <dimension dim="1">type</dimension>
   <field type="int">atomspertype</field>
   <field type="string">element</field>
   <field>mass</field>
   <field>valence</field>
   <field type="string">pseudopotential</field>
   <set>
    <rc><c>  14</c><c>Li</c><c>      7.01000000</c><c>      3.00000000</c><c>  PAW_PBE Li_sv 10Sep2004               </c></rc>
    <rc><c>   1</c><c>Mg</c><c>     24.30500000</c><c>      2.00000000</c><c>  PAW_PBE Mg 13Apr2007                  </c></rc>
    <rc><c>  16</c><c>Bi</c><c>    208.98000000</c><c>     15.00000000</c><c>  PAW_PBE Bi_d 06Sep2000                </c></rc>
    <rc><c>  16</c><c>S </c><c>     32.06600000</c><c>      6.00000000</c><c>  PAW_PBE S 06Sep2000                   </c></rc>
    <rc><c>  16</c><c>O </c><c>     16.00000000</c><c>      6.00000000</c><c>  PAW_PBE O 08Apr2002                   </c></rc>
   </set>
  </array>
 </atominfo>
 <structure name="initialpos" >
  <crystal>
   <varray name="basis" >
    <v>      11.17850000       0.00000000       0.00000000 </v>
    <v>       0.00000000       9.57460000       0.00000000 </v>
    <v>       0.00000000       0.00000000      11.18240000 </v>
   </varray>
   <i name="volume">   1196.84853820 </i>
   <varray name="rec_basis" >
    <v>       0.08945744       0.00000000       0.00000000 </v>
    <v>       0.00000000       0.10444301       0.00000000 </v>
    <v>       0.00000000       0.00000000       0.08942624 </v>
   </varray>
  </crystal>
  <varray name="positions" >
   <v>       0.37539000       0.00017000       0.43687000 </v>
   <v>       0.12461000       0.99983000       0.18687000 </v>
   <v>       0.37461000       0.00017000       0.18687000 </v>
   <v>       0.62539000       0.99983000       0.43687000 </v>
   <v>       0.87539000       0.00017000       0.43687000 </v>
   <v>       0.62461000       0.99983000       0.18687000 </v>
   <v>       0.87461000       0.00017000       0.18687000 </v>
   <v>       0.12539000       0.99983000       0.93687000 </v>
   <v>       0.12461000       0.99983000       0.68687000 </v>
   <v>       0.37461000       0.00017000       0.68687000 </v>
   <v>       0.62539000       0.99983000       0.93687000 </v>
   <v>       0.87539000       0.00017000       0.93687000 </v>
   <v>       0.62461000       0.99983000       0.68687000 </v>
   <v>       0.87461000       0.00017000       0.68687000 </v>
   <v>       0.37539000       0.00017000       0.93687000 </v>
   <v>       0.00013000       0.29519000       0.06282000 </v>
   <v>       0.25013000       0.70481000       0.06282000 </v>
   <v>       0.24987000       0.29519000       0.31282000 </v>
   <v>       0.49987000       0.70481000       0.31282000 </v>
   <v>       0.50013000       0.29519000       0.06282000 </v>
   <v>       0.75013000       0.70481000       0.06282000 </v>
   <v>       0.74987000       0.29519000       0.31282000 </v>
   <v>       0.99987000       0.70481000       0.31282000 </v>
   <v>       0.00013000       0.29519000       0.56282000 </v>
   <v>       0.25013000       0.70481000       0.56282000 </v>
   <v>       0.24987000       0.29519000       0.81282000 </v>
   <v>       0.49987000       0.70481000       0.81282000 </v>
   <v>       0.50013000       0.29519000       0.56282000 </v>
   <v>       0.75013000       0.70481000       0.56282000 </v>
   <v>       0.74987000       0.29519000       0.81282000 </v>
   <v>       0.99987000       0.70481000       0.81282000 </v>
   <v>       0.25005000       0.32677000       0.06286000 </v>
   <v>       0.00005000       0.67323000       0.06286000 </v>
   <v>       0.49995000       0.32677000       0.31286000 </v>
   <v>       0.24995000       0.67323000       0.31286000 </v>
   <v>       0.75005000       0.32677000       0.06286000 </v>
   <v>       0.50005000       0.67323000       0.06286000 </v>
   <v>       0.99995000       0.32677000       0.31286000 </v>
   <v>       0.74995000       0.67323000       0.31286000 </v>
   <v>       0.25005000       0.32677000       0.56286000 </v>
   <v>       0.00005000       0.67323000       0.56286000 </v>
   <v>       0.49995000       0.32677000       0.81286000 </v>
   <v>       0.24995000       0.67323000       0.81286000 </v>
   <v>       0.75005000       0.32677000       0.56286000 </v>
   <v>       0.50005000       0.67323000       0.56286000 </v>
   <v>       0.99995000       0.32677000       0.81286000 </v>
   <v>       0.74995000       0.67323000       0.81286000 </v>
   <v>       0.49987000       0.07798000       0.06246000 </v>
   <v>       0.00013000       0.92202000       0.31246000 </v>
   <v>       0.24987000       0.92202000       0.06246000 </v>
   <v>       0.25013000       0.07798000       0.31246000 </v>
   <v>       0.99987000       0.07798000       0.06246000 </v>
   <v>       0.50013000       0.92202000       0.31246000 </v>
   <v>       0.74987000       0.92202000       0.06246000 </v>
   <v>       0.75013000       0.07798000       0.31246000 </v>
   <v>       0.49987000       0.07798000       0.56246000 </v>
   <v>       0.00013000       0.92202000       0.81246000 </v>
   <v>       0.24987000       0.92202000       0.56246000 </v>
   <v>       0.25013000       0.07798000       0.81246000 </v>
   <v>       0.99987000       0.07798000       0.56246000 </v>
   <v>       0.50013000       0.92202000       0.81246000 </v>
   <v>       0.74987000       0.92202000       0.56246000 </v>
   <v>       0.75013000       0.07798000       0.81246000 </v>
  </varray>
 </structure>
 <calculation>
  <scstep>
   <time name="dav">   64.48   64.63</time>
   <time name="total">   64.57   64.73</time>
   <energy>
    <i name="alphaZ">   1086.17722071 </i>
    <i name="ewald"> -31342.54087840 </i>
    <i name="hartreedc"> -12718.78437264 </i>
    <i name="XCdc">   1542.80643206 </i>
    <i name="pawpsdc">  37012.13516878 </i>
    <i name="pawaedc"> -36680.30965123 </i>
    <i name="eentropy">      0.00000000 </i>
    <i name="bandstr">   1531.66537422 </i>
    <i name="atom">  45556.09114881 </i>
    <i name="e_fr_energy">   5987.24044231 </i>
    <i name="e_wo_entrp">   5987.24044231 </i>
    <i name="e_0_energy">   5987.24044231 </i>
   </energy>
  </scstep>
  <scstep>
   <time name="dav">   64.53   64.70</time>
   <time name="total">   64.54   64.71</time>
   <energy>
    <i name="e_fr_energy">    775.64946150 </i>
    <i name="e_wo_entrp">    775.64946150 </i>
    <i name="e_0_energy">    775.64946150 </i>
   </energy>
  </scstep>
  <scstep>
   <time name="dav">   70.80   71.03</time>
   <time name="total">   70.80   71.04</time>
   <energy>
    <i name="e_fr_energy">   -241.70616756 </i>
    <i name="e_wo_entrp">   -241.70616756 </i>
    <i name="e_0_energy">   -241.70616756 </i>
   </energy>
  </scstep>
  <scstep>
   <time name="dav">   77.91   78.12</time>
   <time name="total">   77.92   78.12</time>
   <energy>
    <i name="e_fr_energy">   -356.75954214 </i>
    <i name="e_wo_entrp">   -356.75954214 </i>
    <i name="e_0_energy">   -356.75954214 </i>
   </energy>
  </scstep>
  <scstep>
   <time name="dav">  104.34  105.23</time>
   <time name="total">  105.06  105.97</time>
   <energy>
    <i name="e_fr_energy">   -366.85331308 </i>
    <i name="e_wo_entrp">   -366.85331308 </i>
    <i name="e_0_energy">   -366.85331308 </i>
   </energy>
  </scstep>
  <scstep>
   <time name="dav">   90.30   91.42</time>
   <time name="total">   91.10   92.23</time>
   <energy>
    <i name="e_fr_energy">   -305.36532651 </i>
    <i name="e_wo_entrp">   -305.36532651 </i>
    <i name="e_0_energy">   -305.36532651 </i>
   </energy>
  </scstep>
  <scstep>
   <time name="dav">   70.42   71.72</time>
   <time name="total">   71.21   72.52</time>
   <energy>
    <i name="e_fr_energy">   -307.57163600 </i>
    <i name="e_wo_entrp">   -307.57163600 </i>
    <i name="e_0_energy">   -307.57163600 </i>
   </energy>
  </scstep>
  <scstep>
   <time name="dav">   78.88   80.17</time>
   <time name="total">   79.67   80.97</time>
   <energy>
    <i name="e_fr_energy">   -306.04367759 </i>
    <i name="e_wo_entrp">   -306.04367759 </i>
    <i name="e_0_energy">   -306.04367759 </i>
   </energy>
  </scstep>
  <scstep>
   <time name="dav">   92.31   93.74</time>
   <time name="total">   93.11   94.54</time>
   <energy>
    <i name="e_fr_energy">   -305.36704198 </i>
    <i name="e_wo_entrp">   -305.36704198 </i>
    <i name="e_0_energy">   -305.36704198 </i>
   </energy>
  </scstep>
  <scstep>
   <time name="dav">   77.31   78.28</time>
   <time name="total">   78.11   79.08</time>
   <energy>
    <i name="e_fr_energy">   -305.34259155 </i>
    <i name="e_wo_entrp">   -305.34259155 </i>
    <i name="e_0_energy">   -305.34259155 </i>
   </energy>
  </scstep>
  <scstep>
   <time name="dav">   84.90   86.08</time>
   <time name="total">   85.69   86.88</time>
   <energy>
    <i name="e_fr_energy">   -305.35574849 </i>
    <i name="e_wo_entrp">   -305.35574849 </i>
    <i name="e_0_energy">   -305.35574849 </i>
   </energy>
  </scstep>
  <scstep>
   <time name="dav">   85.63   86.88</time>
   <time name="total">   86.43   87.68</time>
   <energy>
    <i name="e_fr_energy">   -305.36145454 </i>
    <i name="e_wo_entrp">   -305.36145454 </i>
    <i name="e_0_energy">   -305.36145454 </i>
   </energy>
  </scstep>
  <scstep>
   <time name="dav">   81.61   82.30</time>
   <time name="total">   82.41   83.10</time>
   <energy>
    <i name="e_fr_energy">   -305.36215803 </i>
    <i name="e_wo_entrp">   -305.36215803 </i>
    <i name="e_0_energy">   -305.36215803 </i>
   </energy>
  </scstep>
  <scstep>
   <time name="dav">   71.17   71.98</time>
   <time name="total">   71.97   72.78</time>
   <energy>
    <i name="e_fr_energy">   -305.36242253 </i>
    <i name="e_wo_entrp">   -305.36242253 </i>
    <i name="e_0_energy">   -305.36242253 </i>
   </energy>
  </scstep>
  <scstep>
   <time name="dav">   98.09   98.22</time>
   <time name="total">   98.90   99.02</time>
   <energy>
    <i name="e_fr_energy">   -305.36245933 </i>
    <i name="e_wo_entrp">   -305.36245933 </i>
    <i name="e_0_energy">   -305.36245933 </i>
   </energy>
  </scstep>
  <scstep>
   <time name="dav">   69.67   69.77</time>
   <time name="total">   70.47   70.57</time>
   <energy>
    <i name="e_fr_energy">   -305.36247464 </i>
    <i name="e_wo_entrp">   -305.36247464 </i>
    <i name="e_0_energy">   -305.36247464 </i>
   </energy>
  </scstep>
  <scstep>
   <time name="dav">   76.10   76.20</time>
   <time name="total">   76.90   77.00</time>
   <energy>
    <i name="e_fr_energy">   -305.36247749 </i>
    <i name="e_wo_entrp">   -305.36247749 </i>
    <i name="e_0_energy">   -305.36247749 </i>
   </energy>
  </scstep>
  <scstep>
   <time name="dav">   63.12   63.18</time>
   <time name="total">   63.20   63.26</time>
   <energy>
    <i name="alphaZ">   1086.17722071 </i>
    <i name="ewald"> -31342.54087840 </i>
    <i name="hartreedc"> -12952.87807366 </i>
    <i name="XCdc">   1565.11821190 </i>
    <i name="pawpsdc">  44045.77652930 </i>
    <i name="pawaedc"> -43690.32678237 </i>
    <i name="eentropy">      0.00000000 </i>
    <i name="bandstr">  -4572.77985394 </i>
    <i name="atom">  45556.09114881 </i>
    <i name="e_fr_energy">   -305.36247764 </i>
    <i name="e_wo_entrp">   -305.36247764 </i>
    <i name="e_0_energy">   -305.36247764 </i>
   </energy>
  </scstep>
  <structure>
   <crystal>
    <varray name="basis" >
     <v>      11.17850000       0.00000000       0.00000000 </v>
     <v>       0.00000000       9.57460000       0.00000000 </v>
     <v>       0.00000000       0.00000000      11.18240000 </v>
    </varray>
    <i name="volume">   1196.84853820 </i>
    <varray name="rec_basis" >
     <v>       0.08945744       0.00000000       0.00000000 </v>
     <v>       0.00000000       0.10444301       0.00000000 </v>
     <v>       0.00000000       0.00000000       0.08942624 </v>
    </varray>
   </crystal>
   <varray name="positions" >
    <v>       0.37539000       0.00017000       0.43687000 </v>
    <v>       0.12461000       0.99983000       0.18687000 </v>
    <v>       0.37461000       0.00017000       0.18687000 </v>
    <v>       0.62539000       0.99983000       0.43687000 </v>
    <v>       0.87539000       0.00017000       0.43687000 </v>
    <v>       0.62461000       0.99983000       0.18687000 </v>
    <v>       0.87461000       0.00017000       0.18687000 </v>
    <v>       0.12539000       0.99983000       0.93687000 </v>
    <v>       0.12461000       0.99983000       0.68687000 </v>
    <v>       0.37461000       0.00017000       0.68687000 </v>
    <v>       0.62539000       0.99983000       0.93687000 </v>
    <v>       0.87539000       0.00017000       0.93687000 </v>
    <v>       0.62461000       0.99983000       0.68687000 </v>
    <v>       0.87461000       0.00017000       0.68687000 </v>
    <v>       0.37539000       0.00017000       0.93687000 </v>
    <v>       0.00013000       0.29519000       0.06282000 </v>
    <v>       0.25013000       0.70481000       0.06282000 </v>
    <v>       0.24987000       0.29519000       0.31282000 </v>
    <v>       0.49987000       0.70481000       0.31282000 </v>
    <v>       0.50013000       0.29519000       0.06282000 </v>
    <v>       0.75013000       0.70481000       0.06282000 </v>
    <v>       0.74987000       0.29519000       0.31282000 </v>
    <v>       0.99987000       0.70481000       0.31282000 </v>
    <v>       0.00013000       0.29519000       0.56282000 </v>
    <v>       0.25013000       0.70481000       0.56282000 </v>
    <v>       0.24987000       0.29519000       0.81282000 </v>
    <v>       0.49987000       0.70481000       0.81282000 </v>
    <v>       0.50013000       0.29519000       0.56282000 </v>
    <v>       0.75013000       0.70481000       0.56282000 </v>
    <v>       0.74987000       0.29519000       0.81282000 </v>
    <v>       0.99987000       0.70481000       0.81282000 </v>
    <v>       0.25005000       0.32677000       0.06286000 </v>
    <v>       0.00005000       0.67323000       0.06286000 </v>
    <v>       0.49995000       0.32677000       0.31286000 </v>
    <v>       0.24995000       0.67323000       0.31286000 </v>
    <v>       0.75005000       0.32677000       0.06286000 </v>
    <v>       0.50005000       0.67323000       0.06286000 </v>
    <v>       0.99995000       0.32677000       0.31286000 </v>
    <v>       0.74995000       0.67323000       0.31286000 </v>
    <v>       0.25005000       0.32677000       0.56286000 </v>
    <v>       0.00005000       0.67323000       0.56286000 </v>
    <v>       0.49995000       0.32677000       0.81286000 </v>
    <v>       0.24995000       0.67323000       0.81286000 </v>
    <v>       0.75005000       0.32677000       0.56286000 </v>
    <v>       0.50005000       0.67323000       0.56286000 </v>
    <v>       0.99995000       0.32677000       0.81286000 </v>
    <v>       0.74995000       0.67323000       0.81286000 </v>
    <v>       0.49987000       0.07798000       0.06246000 </v>
    <v>       0.00013000       0.92202000       0.31246000 </v>
    <v>       0.24987000       0.92202000       0.06246000 </v>
    <v>       0.25013000       0.07798000       0.31246000 </v>
    <v>       0.99987000       0.07798000       0.06246000 </v>
    <v>       0.50013000       0.92202000       0.31246000 </v>
    <v>       0.74987000       0.92202000       0.06246000 </v>
    <v>       0.75013000       0.07798000       0.31246000 </v>
    <v>       0.49987000       0.07798000       0.56246000 </v>
    <v>       0.00013000       0.92202000       0.81246000 </v>
    <v>       0.24987000       0.92202000       0.56246000 </v>
    <v>       0.25013000       0.07798000       0.81246000 </v>
    <v>       0.99987000       0.07798000       0.56246000 </v>
    <v>       0.50013000       0.92202000       0.81246000 </v>
    <v>       0.74987000       0.92202000       0.56246000 </v>
    <v>       0.75013000       0.07798000       0.81246000 </v>
   </varray>
  </structure>
  <varray name="forces" >
   <v>      -0.53305654      -0.00074052       0.00484182 </v>
   <v>      -0.11994743       0.07085056       0.66033937 </v>
   <v>      -0.18636387       0.05843103       0.73347047 </v>
   <v>       0.03384959       0.00019236       0.00522593 </v>
   <v>       0.51769495      -0.00155462       0.00503059 </v>
   <v>       0.13531440      -0.06950285       0.16203744 </v>
   <v>       0.20032013      -0.06068040       0.23901231 </v>
   <v>      -0.54400106      -0.00089834       0.00647887 </v>
   <v>      -0.12014512      -0.07044553      -0.64949787 </v>
   <v>      -0.18590693      -0.05970131      -0.72195361 </v>
   <v>       0.52685562       0.00033049       0.00669659 </v>
   <v>       0.02140933      -0.00048743       0.00614521 </v>
   <v>       0.13523630       0.06985528      -0.15168352 </v>
   <v>       0.19981550       0.05869908      -0.22660299 </v>
   <v>      -0.08361014      -0.00475550       0.03358321 </v>
   <v>      -0.07566128       0.02290960       0.19549050 </v>
   <v>      -0.29505338      -1.06136828       0.34908883 </v>
   <v>      -0.28695980      -1.01975321       0.33811865 </v>
   <v>      -0.03584389      -0.02256456       0.19508332 </v>
   <v>       0.13578783       1.06311083       0.30403743 </v>
   <v>       0.20922540      -0.02456693       0.15336410 </v>
   <v>       0.20073641      -0.01090733       0.13527871 </v>
   <v>       0.15379434       1.05298400       0.28154591 </v>
   <v>       0.13625669      -1.04125929      -0.29432919 </v>
   <v>      -0.29924033       1.01051376      -0.35139894 </v>
   <v>      -0.28850316       1.07413365      -0.35321725 </v>
   <v>       0.14877793      -1.07154973      -0.30877736 </v>
   <v>      -0.04630539       0.02321872      -0.20642782 </v>
   <v>       0.18853026       0.01055348      -0.14543224 </v>
   <v>       0.22165235       0.02494895      -0.16025926 </v>
   <v>      -0.06440403      -0.02417296      -0.20150740 </v>
   <v>       0.20617271       0.08834675      -0.29845689 </v>
   <v>       0.08627821      -0.18645170      -0.17470345 </v>
   <v>       0.10298109       0.18713176      -0.16792622 </v>
   <v>       0.19060084      -0.18430859      -0.28840264 </v>
   <v>      -0.16490178       0.14330179      -0.07400120 </v>
   <v>      -0.12492166      -0.04665142      -0.20130626 </v>
   <v>      -0.11478138       0.21929036      -0.19902119 </v>
   <v>      -0.18151403      -0.22000668      -0.08196524 </v>
   <v>       0.18743090       0.18273476       0.29013148 </v>
   <v>      -0.11507551      -0.21871608       0.20016289 </v>
   <v>      -0.12600926       0.04372173       0.20035992 </v>
   <v>       0.20852806      -0.08627475       0.29502641 </v>
   <v>      -0.18109515       0.21918728       0.08294269 </v>
   <v>       0.10113456      -0.18661066       0.17013554 </v>
   <v>       0.08864638       0.18517405       0.17102733 </v>
   <v>      -0.16403073      -0.14324649       0.07249907 </v>
   <v>      -0.56059209      -0.92849158      -0.66122667 </v>
   <v>      -0.65600764      -0.87224838      -0.73184246 </v>
   <v>       0.67700762       0.88981920      -0.73982974 </v>
   <v>       0.71757262       0.80118568      -0.81169719 </v>
   <v>       0.08319946      -0.03149254      -0.16329602 </v>
   <v>       0.06634657       0.03137812      -0.16788063 </v>
   <v>      -0.16278911       0.08276291      -0.09111118 </v>
   <v>      -0.16393189       0.03191835      -0.08781705 </v>
   <v>       0.07658106      -0.03176342       0.16726985 </v>
   <v>       0.07388737       0.03360245       0.15912398 </v>
   <v>       0.72775547      -0.79560657       0.81567096 </v>
   <v>       0.65596812      -0.88792864       0.71738089 </v>
   <v>      -0.64262200       0.86799741       0.73528365 </v>
   <v>      -0.56617401       0.92955933       0.64575749 </v>
   <v>      -0.15223071      -0.03051177       0.08623659 </v>
   <v>      -0.17366877      -0.08262568       0.08769348 </v>
  </varray>
  <varray name="stress" >
   <v>      -8.30145778      -0.06011972       0.01187491 </v>
   <v>      -0.06011939     -14.69830914      -0.00078023 </v>
   <v>       0.01187457      -0.00078083      -9.24103538 </v>
  </varray>
  <energy>
   <i name="e_fr_energy">   -322.47589264 </i>
   <i name="e_wo_entrp">   -322.47589264 </i>
   <i name="e_0_energy">      0.00000000 </i>
  </energy>
  <time name="totalsc"> 1556.66 1568.97</time>
 </calculation>
 <calculation>
  <scstep>
   <time name="dav">   66.24   66.44</time>
   <time name="total">   67.04   67.24</time>
   <energy>
    <i name="alphaZ">   1106.46251065 </i>
    <i name="ewald"> -31540.88675043 </i>
    <i name="hartreedc"> -13025.13526897 </i>
    <i name="XCdc">   1576.11308085 </i>
    <i name="pawpsdc">  44045.81915966 </i>
    <i name="pawaedc"> -43690.37149818 </i>
    <i name="eentropy">      0.00000000 </i>
    <i name="bandstr">  -4333.64297728 </i>
    <i name="atom">  45556.09114881 </i>
    <i name="e_fr_energy">   -305.55059488 </i>
    <i name="e_wo_entrp">   -305.55059488 </i>
    <i name="e_0_energy">   -305.55059488 </i>
   </energy>
  </scstep>
  <scstep>
   <time name="dav">   71.89   72.09</time>
   <time name="total">   72.69   72.90</time>
   <energy>
    <i name="e_fr_energy">   -306.10082196 </i>
    <i name="e_wo_entrp">   -306.10082196 </i>
    <i name="e_0_energy">   -306.10082196 </i>
   </energy>
  </scstep>
  <scstep>
   <time name="dav">   92.18   92.47</time>
   <time name="total">   92.99   93.28</time>
   <energy>
    <i name="e_fr_energy">   -305.87030272 </i>
    <i name="e_wo_entrp">   -305.87030272 </i>
    <i name="e_0_energy">   -305.87030272 </i>
   </energy>
  </scstep>
  <scstep>
   <time name="dav">   87.76   87.98</time>
   <time name="total">   88.56   88.79</time>
   <energy>
    <i name="e_fr_energy">   -305.81342276 </i>
    <i name="e_wo_entrp">   -305.81342276 </i>
    <i name="e_0_energy">   -305.81342276 </i>
   </energy>
  </scstep>
  <scstep>
   <time name="dav">   77.74   78.85</time>
   <time name="total">   78.54   79.65</time>
   <energy>
    <i name="e_fr_energy">   -305.81592540 </i>
    <i name="e_wo_entrp">   -305.81592540 </i>
    <i name="e_0_energy">   -305.81592540 </i>
   </energy>
  </scstep>
  <scstep>
   <time name="dav">   88.59   88.91</time>
   <time name="total">   89.40   89.71</time>
   <energy>
    <i name="e_fr_energy">   -305.81483626 </i>
    <i name="e_wo_entrp">   -305.81483626 </i>
    <i name="e_0_energy">   -305.81483626 </i>
   </energy>
  </scstep>
  <scstep>
   <time name="dav">   91.40   91.71</time>
   <time name="total">   92.20   92.51</time>
   <energy>
    <i name="e_fr_energy">   -305.81440246 </i>
    <i name="e_wo_entrp">   -305.81440246 </i>
    <i name="e_0_energy">   -305.81440246 </i>
   </energy>
  </scstep>
  <scstep>
   <time name="dav">   90.63   90.99</time>
   <time name="total">   91.43   91.79</time>
   <energy>
    <i name="e_fr_energy">   -305.81449697 </i>
    <i name="e_wo_entrp">   -305.81449697 </i>
    <i name="e_0_energy">   -305.81449697 </i>
   </energy>
  </scstep>
  <scstep>
   <time name="dav">   83.53   83.78</time>
   <time name="total">   84.34   84.58</time>
   <energy>
    <i name="e_fr_energy">   -305.81450325 </i>
    <i name="e_wo_entrp">   -305.81450325 </i>
    <i name="e_0_energy">   -305.81450325 </i>
   </energy>
  </scstep>
  <scstep>
   <time name="dav">   69.37   69.46</time>
   <time name="total">   70.18   70.26</time>
   <energy>
    <i name="e_fr_energy">   -305.81450679 </i>
    <i name="e_wo_entrp">   -305.81450679 </i>
    <i name="e_0_energy">   -305.81450679 </i>
   </energy>
  </scstep>
  <scstep>
   <time name="dav">   93.06   93.25</time>
   <time name="total">   93.86   94.05</time>
   <energy>
    <i name="e_fr_energy">   -305.81450481 </i>
    <i name="e_wo_entrp">   -305.81450481 </i>
    <i name="e_0_energy">   -305.81450481 </i>
   </energy>
  </scstep>
  <scstep>
   <time name="dav">   64.93   65.06</time>
   <time name="total">   65.00   65.14</time>
   <energy>
    <i name="alphaZ">   1106.46251065 </i>
    <i name="ewald"> -31540.88675043 </i>
    <i name="hartreedc"> -12850.53772460 </i>
    <i name="XCdc">   1567.86070482 </i>
    <i name="pawpsdc">  44417.92685358 </i>
    <i name="pawaedc"> -44065.30764578 </i>
    <i name="eentropy">      0.00000000 </i>
    <i name="bandstr">  -4497.42360197 </i>
    <i name="atom">  45556.09114881 </i>
    <i name="e_fr_energy">   -305.81450491 </i>
    <i name="e_wo_entrp">   -305.81450491 </i>
    <i name="e_0_energy">   -305.81450491 </i>
   </energy>
  </scstep>
  <structure>
   <crystal>
    <varray name="basis" >
     <v>      11.12541679      -0.00038443       0.00007593 </v>
     <v>      -0.00032927       9.49409789      -0.00000427 </v>
     <v>       0.00007596      -0.00000499      11.12328810 </v>
    </varray>
    <i name="volume">   1174.90615933 </i>
    <varray name="rec_basis" >
     <v>       0.08988427       0.00000312      -0.00000061 </v>
     <v>       0.00000364       0.10532860       0.00000005 </v>
     <v>      -0.00000061       0.00000004       0.08990147 </v>
    </varray>
   </crystal>
   <varray name="positions" >
    <v>       0.37308951       0.00016627       0.43689089 </v>
    <v>       0.12409235       0.00018699       0.18971881 </v>
    <v>       0.37380572       0.00046441       0.19003431 </v>
    <v>       0.62553608       0.99983097       0.43689255 </v>
    <v>       0.87762420       0.00016217       0.43689170 </v>
    <v>       0.62519397       0.99947980       0.18756906 </v>
    <v>       0.87547451      -0.00013574       0.18790114 </v>
    <v>       0.12304227       0.99982547       0.93689795 </v>
    <v>       0.12409149       0.99947505       0.68406796 </v>
    <v>       0.37380769      -0.00013081       0.68375538 </v>
    <v>       0.62766373       0.99983167       0.93689889 </v>
    <v>       0.87548240       0.00016754       0.93689651 </v>
    <v>       0.62519363       0.00018197       0.68621561 </v>
    <v>       0.87547234       0.00046576       0.68589240 </v>
    <v>       0.37502917       0.00014604       0.93701488 </v>
    <v>      -0.00019653       0.29530543       0.06366338 </v>
    <v>       0.24885665       0.69946218       0.06432602 </v>
    <v>       0.24863158       0.29005186       0.31427870 </v>
    <v>       0.49971531       0.70469631       0.31366162 </v>
    <v>       0.50071601       0.30054660       0.06413167 </v>
    <v>       0.75103295       0.70468622       0.06348164 </v>
    <v>       0.75073631       0.29513504       0.31340361 </v>
    <v>       0.00053372       0.71011557       0.31403463 </v>
    <v>       0.00071804       0.28994350       0.56155022 </v>
    <v>       0.24883858       0.70990158       0.56130401 </v>
    <v>       0.24862492       0.30060214       0.81129616 </v>
    <v>       0.50051208       0.69941088       0.81148789 </v>
    <v>       0.49993016       0.29530699       0.56192944 </v>
    <v>       0.75094363       0.70486317       0.56219258 </v>
    <v>       0.75082658       0.29531571       0.81212862 </v>
    <v>       0.99959205       0.70468820       0.81195066 </v>
    <v>       0.25093977       0.32721514       0.06157241 </v>
    <v>       0.00042235       0.67229054       0.06210630 </v>
    <v>       0.50039443       0.32771288       0.31213554 </v>
    <v>       0.25077257       0.67230134       0.31161579 </v>
    <v>       0.74933834       0.32749204       0.06254075 </v>
    <v>       0.49951088       0.67299494       0.06199153 </v>
    <v>       0.99945464       0.32787492       0.31200139 </v>
    <v>       0.74916665       0.67212147       0.31250639 </v>
    <v>       0.25085889       0.32769073       0.56411167 </v>
    <v>      -0.00044663       0.67212798       0.56372353 </v>
    <v>       0.49940619       0.32699030       0.81372438 </v>
    <v>       0.25084994       0.67279530       0.81413279 </v>
    <v>       0.74926845       0.32787440       0.56321783 </v>
    <v>       0.50048646       0.67228974       0.56359399 </v>
    <v>       0.00033257       0.32770302       0.81359784 </v>
    <v>       0.74924210       0.67250824       0.81317277 </v>
    <v>       0.49745067       0.07330170       0.05960736 </v>
    <v>      -0.00270111       0.91762508       0.30930272 </v>
    <v>       0.25279174       0.92650345       0.05926826 </v>
    <v>       0.25322680       0.08201686       0.30895821 </v>
    <v>       0.00022906       0.07782132       0.06175551 </v>
    <v>       0.50041633       0.92217810       0.31173574 </v>
    <v>       0.74916746       0.92243701       0.06206693 </v>
    <v>       0.74942252       0.07814082       0.31208114 </v>
    <v>       0.50020050       0.07781996       0.56318163 </v>
    <v>       0.00044887       0.92218931       0.81314649 </v>
    <v>       0.25301075       0.91801125       0.56597893 </v>
    <v>       0.25296094       0.07350608       0.81555490 </v>
    <v>       0.99709666       0.08235350       0.56563213 </v>
    <v>       0.49768658       0.92670368       0.81524590 </v>
    <v>       0.74921302       0.92186626       0.56283204 </v>
    <v>       0.74938050       0.07756368       0.81283832 </v>
   </varray>
  </structure>
  <varray name="forces" >
   <v>      -0.32598331      -0.00260176       0.00538628 </v>
   <v>      -0.00943834       0.04199964       0.34779772 </v>
   <v>      -0.07451656       0.02218139       0.32743698 </v>
   <v>       0.01625766       0.00072441       0.00574489 </v>
   <v>       0.31735680      -0.00006370       0.00478224 </v>
   <v>       0.01612749      -0.03678367       0.02746861 </v>
   <v>       0.09273819      -0.03001733       0.11459553 </v>
   <v>      -0.25404305       0.00215723       0.00689987 </v>
   <v>      -0.01141272      -0.04085121      -0.33788889 </v>
   <v>      -0.07435479      -0.02291228      -0.31046984 </v>
   <v>       0.22723210      -0.00047959       0.00665034 </v>
   <v>       0.00607634      -0.00091729       0.00588518 </v>
   <v>       0.01624252       0.03969342      -0.01540084 </v>
   <v>       0.08995215       0.02525478      -0.10023271 </v>
   <v>       0.00164064      -0.00653324       0.03024787 </v>
   <v>      -0.00476145       0.28200972       0.05210473 </v>
   <v>      -0.07588742       0.04500395       0.06494734 </v>
   <v>      -0.14913129       1.04799681       0.13428127 </v>
   <v>       0.02744152      -0.28174617       0.03748084 </v>
   <v>       0.00942925      -0.08845192       0.08146347 </v>
   <v>       0.05089878      -0.21828890       0.06855878 </v>
   <v>       0.06050382       0.35219603       0.05407428 </v>
   <v>       0.08084228      -1.17722410       0.14839217 </v>
   <v>       0.07215716       1.17232110      -0.15095293 </v>
   <v>      -0.15474000      -1.04604167      -0.13696726 </v>
   <v>      -0.06776770      -0.04430966      -0.07511784 </v>
   <v>       0.02118365       0.08770917      -0.09135651 </v>
   <v>       0.01734134       0.28163074      -0.04434598 </v>
   <v>       0.05076191      -0.35122982      -0.06200411 </v>
   <v>       0.05974338       0.21908518      -0.07630294 </v>
   <v>       0.00322623      -0.28060599      -0.05949518 </v>
   <v>       0.09066260       0.21277657      -0.11933709 </v>
   <v>       0.03621114      -0.18651144      -0.06505075 </v>
   <v>       0.04060835       0.18678099      -0.07085156 </v>
   <v>       0.08944979      -0.11063129      -0.13907588 </v>
   <v>      -0.06615357       0.15638747      -0.02794530 </v>
   <v>      -0.05485672      -0.18473853      -0.08379885 </v>
   <v>      -0.06218730       0.13089756      -0.10315967 </v>
   <v>      -0.07657542      -0.20591761      -0.03761211 </v>
   <v>       0.08840329       0.10968410       0.13807198 </v>
   <v>      -0.06114574      -0.13082493       0.10287377 </v>
   <v>      -0.05421169       0.18328432       0.08411532 </v>
   <v>       0.09213993      -0.21218132       0.11869125 </v>
   <v>      -0.07627240       0.20567797       0.03731684 </v>
   <v>       0.03990517      -0.18640274       0.07074064 </v>
   <v>       0.03557918       0.18624498       0.06351308 </v>
   <v>      -0.06556986      -0.15631260       0.02739440 </v>
   <v>      -0.18085705       0.36202721      -0.19815787 </v>
   <v>      -0.51370342       1.32252487      -0.53361736 </v>
   <v>       0.19571791      -0.34584591      -0.19344822 </v>
   <v>       0.50690665      -1.20160984      -0.52782890 </v>
   <v>       0.00827867      -0.26350581      -0.00898181 </v>
   <v>       0.00044408       0.26312661      -0.00646014 </v>
   <v>      -0.00493499       0.22254215      -0.00852527 </v>
   <v>      -0.01920461      -0.32285324      -0.01057926 </v>
   <v>       0.01034619      -0.26087072       0.00076114 </v>
   <v>      -0.00134692       0.26012206       0.00482890 </v>
   <v>       0.50914932       1.19408686       0.51841479 </v>
   <v>       0.17265700       0.35917357       0.17737662 </v>
   <v>      -0.50511519      -1.30861689       0.52390110 </v>
   <v>      -0.18568554      -0.36813972       0.19150259 </v>
   <v>      -0.01062734       0.32077155       0.00667861 </v>
   <v>      -0.01312812      -0.22205151       0.00458566 </v>
  </varray>
  <varray name="stress" >
   <v>       3.59007372      -0.04379354       0.01384141 </v>
   <v>      -0.04379342       6.32097747       0.04229589 </v>
   <v>       0.01384139       0.04229564       3.92049782 </v>
  </varray>
  <energy>
   <i name="e_fr_energy">   -323.16986079 </i>
   <i name="e_wo_entrp">   -323.16986079 </i>
   <i name="e_0_energy">      0.00000000 </i>
  </energy>
  <time name="totalsc"> 1098.83 1102.67</time>
 </calculation>
 <calculation>
  <scstep>
   <time name="dav">   75.21   75.33</time>
   <time name="total">   76.00   76.13</time>
   <energy>
    <i name="alphaZ">   1104.04149275 </i>
    <i name="ewald"> -31518.52485227 </i>
    <i name="hartreedc"> -12841.10078353 </i>
    <i name="XCdc">   1566.54611792 </i>
    <i name="pawpsdc">  44417.97903035 </i>
    <i name="pawaedc"> -44065.36533152 </i>
    <i name="eentropy">      0.00000000 </i>
    <i name="bandstr">  -4525.52945911 </i>
    <i name="atom">  45556.09114881 </i>
    <i name="e_fr_energy">   -305.86263659 </i>
    <i name="e_wo_entrp">   -305.86263659 </i>
    <i name="e_0_energy">   -305.86263659 </i>
   </energy>
  </scstep>
  <scstep>
   <time name="dav">   74.98   75.15</time>
   <time name="total">   75.75   75.95</time>
   <energy>
    <i name="e_fr_energy">   -305.86189195 </i>
    <i name="e_wo_entrp">   -305.86189195 </i>
    <i name="e_0_energy">   -305.86189195 </i>
   </energy>
  </scstep>
  <scstep>
   <time name="dav">   87.35   87.74</time>
   <time name="total">   88.11   88.56</time>
   <energy>
    <i name="e_fr_energy">   -305.85856640 </i>
    <i name="e_wo_entrp">   -305.85856640 </i>
    <i name="e_0_energy">   -305.85856640 </i>
   </energy>
  </scstep>
  <scstep>
   <time name="dav">   86.54   87.50</time>
   <time name="total">   87.31   88.30</time>
   <energy>
    <i name="e_fr_energy">   -305.85805956 </i>
    <i name="e_wo_entrp">   -305.85805956 </i>
    <i name="e_0_energy">   -305.85805956 </i>
   </energy>
  </scstep>
  <scstep>
   <time name="dav">   78.40   79.26</time>
   <time name="total">   79.20   80.06</time>
   <energy>
    <i name="e_fr_energy">   -305.85804055 </i>
    <i name="e_wo_entrp">   -305.85804055 </i>
    <i name="e_0_energy">   -305.85804055 </i>
   </energy>
  </scstep>
  <scstep>
   <time name="dav">   80.95   82.63</time>
   <time name="total">   81.75   83.44</time>
   <energy>
    <i name="e_fr_energy">   -305.85800509 </i>
    <i name="e_wo_entrp">   -305.85800509 </i>
    <i name="e_0_energy">   -305.85800509 </i>
   </energy>
  </scstep>
  <scstep>
   <time name="dav">   86.44   88.19</time>
   <time name="total">   87.23   89.00</time>
   <energy>
    <i name="e_fr_energy">   -305.85798011 </i>
    <i name="e_wo_entrp">   -305.85798011 </i>
    <i name="e_0_energy">   -305.85798011 </i>
   </energy>
  </scstep>
  <scstep>
   <time name="dav">   85.37   85.70</time>
   <time name="total">   86.17   86.50</time>
   <energy>
    <i name="e_fr_energy">   -305.85798012 </i>
    <i name="e_wo_entrp">   -305.85798012 </i>
    <i name="e_0_energy">   -305.85798012 </i>
   </energy>
  </scstep>
  <scstep>
   <time name="dav">   58.20   58.40</time>
   <time name="total">   58.28   58.48</time>
   <energy>
    <i name="alphaZ">   1104.04149275 </i>
    <i name="ewald"> -31518.52485227 </i>
    <i name="hartreedc"> -12861.73577714 </i>
    <i name="XCdc">   1567.52286167 </i>
    <i name="pawpsdc">  44369.04432450 </i>
    <i name="pawaedc"> -44016.02143113 </i>
    <i name="eentropy">      0.00000000 </i>
    <i name="bandstr">  -4506.27574764 </i>
    <i name="atom">  45556.09114881 </i>
    <i name="e_fr_energy">   -305.85798045 </i>
    <i name="e_wo_entrp">   -305.85798045 </i>
    <i name="e_0_energy">   -305.85798045 </i>
   </energy>
  </scstep>
  <structure>
   <crystal>
    <varray name="basis" >
     <v>      11.13168256      -0.00033906       0.00006697 </v>
     <v>      -0.00029041       9.50360009      -0.00000377 </v>
     <v>       0.00006699      -0.00000441      11.13026547 </v>
    </varray>
    <i name="volume">   1177.48257414 </i>
    <varray name="rec_basis" >
     <v>       0.08983368       0.00000275      -0.00000054 </v>
     <v>       0.00000320       0.10522328       0.00000004 </v>
     <v>      -0.00000054       0.00000004       0.08984512 </v>
    </varray>
   </crystal>
   <varray name="positions" >
    <v>       0.37336235       0.00016672       0.43688841 </v>
    <v>       0.12415374       0.00014450       0.18938076 </v>
    <v>       0.37390111       0.00042937       0.18965882 </v>
    <v>       0.62551876       0.99983085       0.43688987 </v>
    <v>       0.87735922       0.00016309       0.43688913 </v>
    <v>       0.62512471       0.99952149       0.18748610 </v>
    <v>       0.87537199      -0.00009935       0.18777878 </v>
    <v>       0.12332071       0.99982602       0.93689463 </v>
    <v>       0.12415299       0.99951731       0.68440046 </v>
    <v>       0.37390284      -0.00009500       0.68412497 </v>
    <v>       0.62739407       0.99983146       0.93689546 </v>
    <v>       0.87547144       0.00016784       0.93689337 </v>
    <v>       0.62512441       0.00014007       0.68629327 </v>
    <v>       0.87537006       0.00043055       0.68600841 </v>
    <v>       0.37507196       0.00014889       0.93699769 </v>
    <v>      -0.00015780       0.29529169       0.06356330 </v>
    <v>       0.24900769       0.70009878       0.06414731 </v>
    <v>       0.24877847       0.29066350       0.31410560 </v>
    <v>       0.49973366       0.70470984       0.31356175 </v>
    <v>       0.50064650       0.29990896       0.06397602 </v>
    <v>       0.75092586       0.70470095       0.06340313 </v>
    <v>       0.75063357       0.29514158       0.31333436 </v>
    <v>       0.00045499       0.70948401       0.31389050 </v>
    <v>       0.00064831       0.29056803       0.56170090 </v>
    <v>       0.24899172       0.70929550       0.56148390 </v>
    <v>       0.24877256       0.29995790       0.81147699 </v>
    <v>       0.50043594       0.70005358       0.81164596 </v>
    <v>       0.49995386       0.29529306       0.56203512 </v>
    <v>       0.75084714       0.70485684       0.56226703 </v>
    <v>       0.75071313       0.29530074       0.81221066 </v>
    <v>       0.99962502       0.70470270       0.81205382 </v>
    <v>       0.25083424       0.32716215       0.06172520 </v>
    <v>       0.00037819       0.67240237       0.06219574 </v>
    <v>       0.50034172       0.32760064       0.31222151 </v>
    <v>       0.25067501       0.67241188       0.31176343 </v>
    <v>       0.74942274       0.32740609       0.06257863 </v>
    <v>       0.49957482       0.67302293       0.06209459 </v>
    <v>       0.99951339       0.32774339       0.31210328 </v>
    <v>       0.74925956       0.67225343       0.31254835 </v>
    <v>       0.25076295       0.32758112       0.56396315 </v>
    <v>      -0.00038772       0.67225916       0.56362106 </v>
    <v>       0.49947068       0.32696408       0.81362181 </v>
    <v>       0.25074321       0.67284704       0.81398176 </v>
    <v>       0.74936114       0.32774294       0.56317537 </v>
    <v>       0.50043470       0.67240167       0.56350689 </v>
    <v>       0.00028719       0.32759195       0.81351028 </v>
    <v>       0.74932606       0.67259416       0.81313566 </v>
    <v>       0.49773762       0.07385860       0.05994587 </v>
    <v>      -0.00236533       0.91814826       0.30967737 </v>
    <v>       0.25244520       0.92596974       0.05964700 </v>
    <v>       0.25285951       0.08153631       0.30937375 </v>
    <v>       0.00018648       0.07784021       0.06183911 </v>
    <v>       0.50038237       0.92215928       0.31182168 </v>
    <v>       0.74925078       0.92238737       0.06211357 </v>
    <v>       0.74950643       0.07812168       0.31212610 </v>
    <v>       0.50016130       0.07783901       0.56309600 </v>
    <v>       0.00041105       0.92216915       0.81306503 </v>
    <v>       0.25263827       0.91848843       0.56556137 </v>
    <v>       0.25262521       0.07403863       0.81518765 </v>
    <v>       0.99742556       0.08183290       0.56525571 </v>
    <v>       0.49797636       0.92614616       0.81491531 </v>
    <v>       0.74929094       0.92188457       0.56278789 </v>
    <v>       0.74946940       0.07761324       0.81279343 </v>
   </varray>
  </structure>
  <varray name="forces" >
   <v>      -0.35149586      -0.00238512       0.00524036 </v>
   <v>      -0.02185507       0.04488775       0.38525210 </v>
   <v>      -0.08973082       0.02801284       0.37724511 </v>
   <v>       0.01852831       0.00066379       0.00567372 </v>
   <v>       0.34189501      -0.00022595       0.00475312 </v>
   <v>       0.03015802      -0.04046128       0.04351965 </v>
   <v>       0.10659700      -0.03471352       0.13060803 </v>
   <v>      -0.28854400       0.00181273       0.00677024 </v>
   <v>      -0.02368534      -0.04387960      -0.37531495 </v>
   <v>      -0.08958988      -0.02886505      -0.36103987 </v>
   <v>       0.26282809      -0.00038567       0.00661613 </v>
   <v>       0.00807625      -0.00085971       0.00591502 </v>
   <v>       0.03025834       0.04308164      -0.03167531 </v>
   <v>       0.10411244       0.03030419      -0.11652319 </v>
   <v>      -0.01092851      -0.00638689       0.03111622 </v>
   <v>      -0.01307465       0.24993111       0.06954214 </v>
   <v>      -0.10294272      -0.06523508       0.10079686 </v>
   <v>      -0.16073813       0.74834604       0.15256702 </v>
   <v>       0.01997816      -0.24964573       0.05593840 </v>
   <v>       0.02519564       0.02634546       0.10940049 </v>
   <v>       0.06962581      -0.19448552       0.07888202 </v>
   <v>       0.07737801       0.30719857       0.06369203 </v>
   <v>       0.08501582      -0.85024472       0.15889954 </v>
   <v>       0.07525355       0.84806862      -0.16283175 </v>
   <v>      -0.16721870      -0.74828372      -0.15670998 </v>
   <v>      -0.09506688       0.06692799      -0.11034576 </v>
   <v>       0.03719814      -0.02774671      -0.11873215 </v>
   <v>       0.00983365       0.24969045      -0.06343236 </v>
   <v>       0.06728295      -0.30641142      -0.07192678 </v>
   <v>       0.07883304       0.19525584      -0.08658713 </v>
   <v>      -0.00469068      -0.24889410      -0.07688882 </v>
   <v>       0.10467199       0.19891149      -0.14092970 </v>
   <v>       0.04280712      -0.18680397      -0.07834864 </v>
   <v>       0.04832002       0.18709566      -0.08326985 </v>
   <v>       0.10150216      -0.12031907      -0.15823691 </v>
   <v>      -0.07836484       0.15517040      -0.03333404 </v>
   <v>      -0.06337863      -0.16948338      -0.09800390 </v>
   <v>      -0.06866849       0.14244669      -0.11485046 </v>
   <v>      -0.08949385      -0.20790423      -0.04296866 </v>
   <v>       0.10022748       0.11931073       0.15755832 </v>
   <v>      -0.06772893      -0.14231389       0.11473334 </v>
   <v>      -0.06293219       0.16787257       0.09811893 </v>
   <v>       0.10626634      -0.19815911       0.13988711 </v>
   <v>      -0.08916400       0.20761113       0.04281928 </v>
   <v>       0.04748812      -0.18668460       0.08342403 </v>
   <v>       0.04250140       0.18642558       0.07650781 </v>
   <v>      -0.07775513      -0.15508318       0.03264747 </v>
   <v>      -0.23148669       0.22737815      -0.25910124 </v>
   <v>      -0.52698279       1.00185034      -0.55210325 </v>
   <v>       0.25997762      -0.21563162      -0.26589930 </v>
   <v>       0.52825719      -0.91242467      -0.55702556 </v>
   <v>       0.01719078      -0.23457939      -0.02777815 </v>
   <v>       0.00842375       0.23424539      -0.02566463 </v>
   <v>      -0.02375528       0.20521017      -0.01851834 </v>
   <v>      -0.03663424      -0.27883769      -0.01970397 </v>
   <v>       0.01836370      -0.23228592       0.02057453 </v>
   <v>       0.00760347       0.23185183       0.02364074 </v>
   <v>       0.53178442       0.90707344       0.54953025 </v>
   <v>       0.23724060       0.22797226       0.24919579 </v>
   <v>      -0.51814480      -0.99100027       0.54439541 </v>
   <v>      -0.23665241      -0.23272935       0.25155066 </v>
   <v>      -0.02769381       0.27715480       0.01609532 </v>
   <v>      -0.03227706      -0.20475755       0.01463746 </v>
  </varray>
  <varray name="stress" >
   <v>       2.05866433      -0.04559511       0.01370302 </v>
   <v>      -0.04559484       3.02111480       0.03383820 </v>
   <v>       0.01370314       0.03383823       2.22108216 </v>
  </varray>
  <energy>
   <i name="e_fr_energy">   -323.18382562 </i>
   <i name="e_wo_entrp">   -323.18382562 </i>
   <i name="e_0_energy">      0.00000000 </i>
  </energy>
  <time name="totalsc">  831.97  838.99</time>
 </calculation>
 <calculation>
  <scstep>
   <time name="dav">   64.51   64.68</time>
   <time name="total">   65.30   65.48</time>
   <energy>
    <i name="alphaZ">   1106.99971068 </i>
    <i name="ewald"> -31657.05378618 </i>
    <i name="hartreedc"> -12772.04482032 </i>
    <i name="XCdc">   1568.48037919 </i>
    <i name="pawpsdc">  44369.10594106 </i>
    <i name="pawaedc"> -44016.08598689 </i>
    <i name="eentropy">      0.00000000 </i>
    <i name="bandstr">  -4461.07910664 </i>
    <i name="atom">  45556.09114881 </i>
    <i name="e_fr_energy">   -305.58652027 </i>
    <i name="e_wo_entrp">   -305.58652027 </i>
    <i name="e_0_energy">   -305.58652027 </i>
   </energy>
  </scstep>
  <scstep>
   <time name="dav">   74.54   74.83</time>
   <time name="total">   75.36   75.65</time>
   <energy>
    <i name="e_fr_energy">   -306.15249179 </i>
    <i name="e_wo_entrp">   -306.15249179 </i>
    <i name="e_0_energy">   -306.15249179 </i>
   </energy>
  </scstep>
  <scstep>
   <time name="dav">   96.25   96.51</time>
   <time name="total">   97.11   97.38</time>
   <energy>
    <i name="e_fr_energy">   -306.13587256 </i>
    <i name="e_wo_entrp">   -306.13587256 </i>
    <i name="e_0_energy">   -306.13587256 </i>
   </energy>
  </scstep>
  <scstep>
   <time name="dav">   76.39   76.67</time>
   <time name="total">   77.21   77.48</time>
   <energy>
    <i name="e_fr_energy">   -306.11877156 </i>
    <i name="e_wo_entrp">   -306.11877156 </i>
    <i name="e_0_energy">   -306.11877156 </i>
   </energy>
  </scstep>
  <scstep>
   <time name="dav">   80.96   81.21</time>
   <time name="total">   81.76   82.01</time>
   <energy>
    <i name="e_fr_energy">   -306.11442664 </i>
    <i name="e_wo_entrp">   -306.11442664 </i>
    <i name="e_0_energy">   -306.11442664 </i>
   </energy>
  </scstep>
  <scstep>
   <time name="dav">   86.82   87.09</time>
   <time name="total">   87.63   87.89</time>
   <energy>
    <i name="e_fr_energy">   -306.11481369 </i>
    <i name="e_wo_entrp">   -306.11481369 </i>
    <i name="e_0_energy">   -306.11481369 </i>
   </energy>
  </scstep>
  <scstep>
   <time name="dav">   95.90   96.23</time>
   <time name="total">   96.74   97.08</time>
   <energy>
    <i name="e_fr_energy">   -306.11476325 </i>
    <i name="e_wo_entrp">   -306.11476325 </i>
    <i name="e_0_energy">   -306.11476325 </i>
   </energy>
  </scstep>
  <scstep>
   <time name="dav">   73.64   73.78</time>
   <time name="total">   74.49   74.62</time>
   <energy>
    <i name="e_fr_energy">   -306.11470048 </i>
    <i name="e_wo_entrp">   -306.11470048 </i>
    <i name="e_0_energy">   -306.11470048 </i>
   </energy>
  </scstep>
  <scstep>
   <time name="dav">   87.82   87.99</time>
   <time name="total">   88.64   88.81</time>
   <energy>
    <i name="e_fr_energy">   -306.11470360 </i>
    <i name="e_wo_entrp">   -306.11470360 </i>
    <i name="e_0_energy">   -306.11470360 </i>
   </energy>
  </scstep>
  <scstep>
   <time name="dav">   78.01   78.13</time>
   <time name="total">   78.81   78.93</time>
   <energy>
    <i name="e_fr_energy">   -306.11470642 </i>
    <i name="e_wo_entrp">   -306.11470642 </i>
    <i name="e_0_energy">   -306.11470642 </i>
   </energy>
  </scstep>
  <scstep>
   <time name="dav">   71.28   71.39</time>
   <time name="total">   72.09   72.20</time>
   <energy>
    <i name="e_fr_energy">   -306.11470802 </i>
    <i name="e_wo_entrp">   -306.11470802 </i>
    <i name="e_0_energy">   -306.11470802 </i>
   </energy>
  </scstep>
  <scstep>
   <time name="dav">   61.67   61.73</time>
   <time name="total">   61.78   61.83</time>
   <energy>
    <i name="alphaZ">   1106.99971068 </i>
    <i name="ewald"> -31657.05378618 </i>
    <i name="hartreedc"> -12741.06569461 </i>
    <i name="XCdc">   1566.95225637 </i>
    <i name="pawpsdc">  44259.66356854 </i>
    <i name="pawaedc"> -43904.54244178 </i>
    <i name="eentropy">      0.00000000 </i>
    <i name="bandstr">  -4493.15946999 </i>
    <i name="atom">  45556.09114881 </i>
    <i name="e_fr_energy">   -306.11470816 </i>
    <i name="e_wo_entrp">   -306.11470816 </i>
    <i name="e_0_energy">   -306.11470816 </i>
   </energy>
  </scstep>
  <structure>
   <crystal>
    <varray name="basis" >
     <v>      11.12511071      -0.00075626       0.00017815 </v>
     <v>      -0.00064683       9.49040794       0.00017140 </v>
     <v>       0.00017817       0.00020075      11.12251902 </v>
    </varray>
    <i name="volume">   1174.33600595 </i>
    <varray name="rec_basis" >
     <v>       0.08988675       0.00000613      -0.00000144 </v>
     <v>       0.00000716       0.10536955      -0.00000190 </v>
     <v>      -0.00000144      -0.00000162       0.08990769 </v>
    </varray>
   </crystal>
   <varray name="positions" >
    <v>       0.37103746       0.00015346       0.43691821 </v>
    <v>       0.12387280       0.00049736       0.19204881 </v>
    <v>       0.37322859       0.00067572       0.19240790 </v>
    <v>       0.62565034       0.99983450       0.43692209 </v>
    <v>       0.87961934       0.00015919       0.43691714 </v>
    <v>       0.62546492       0.99919305       0.18792490 </v>
    <v>       0.87613778      -0.00038305       0.18870709 </v>
    <v>       0.12124501       0.99983328       0.93693348 </v>
    <v>       0.12386400       0.99917017       0.68179151 </v>
    <v>       0.37323166      -0.00034796       0.68146257 </v>
    <v>       0.62933401       0.99983022       0.93693397 </v>
    <v>       0.87553925       0.00016268       0.93692805 </v>
    <v>       0.62546494       0.00048217       0.68592086 </v>
    <v>       0.87612457       0.00068880       0.68515919 </v>
    <v>       0.37489435       0.00010848       0.93718215 </v>
    <v>      -0.00033198       0.29657261       0.06416480 </v>
    <v>       0.24810844       0.69782213       0.06512245 </v>
    <v>       0.24764748       0.29249588       0.31528259 </v>
    <v>       0.49976184       0.70343097       0.31410503 </v>
    <v>       0.50096651       0.30199604       0.06491676 </v>
    <v>       0.75154918       0.70369181       0.06397795 </v>
    <v>       0.75127642       0.29664413       0.31381648 </v>
    <v>       0.00105631       0.70720772       0.31500538 </v>
    <v>       0.00118090       0.29285515       0.56054928 </v>
    <v>       0.24781393       0.70744634       0.56026852 </v>
    <v>       0.24791706       0.30226636       0.81045497 </v>
    <v>       0.50082706       0.69794405       0.81065827 </v>
    <v>       0.49992276       0.29657336       0.56144229 </v>
    <v>       0.75142802       0.70335758       0.56173410 </v>
    <v>       0.75139499       0.29631445       0.81159239 </v>
    <v>       0.99950395       0.70342459       0.81141178 </v>
    <v>       0.25160113       0.32831065       0.06065979 </v>
[...]
       <r>   11.6708    0.0000 </r>
       <r>   11.7096    0.0000 </r>
      </set>
     </set>
    </set>
   </array>
  </eigenvalues>
  <separator name="orbital magnetization" >
   <v name="MAGDIPOLOUT">      0.00000000      0.00000000      0.00000000</v>
  </separator>
  <dos>
   <i name="efermi">      4.68827890 </i>
   <total>
    <array>
     <dimension dim="1">gridpoints</dimension>
     <dimension dim="2">spin</dimension>
     <field>energy</field>
     <field>total</field>
     <field>integrated</field>
     <set>
      <set comment="spin 1">
       <r>   -42.1465     0.0000     0.0000 </r>
       <r>   -41.9556     0.0000     0.0000 </r>
       <r>   -41.7646     0.0000     0.0000 </r>
       <r>   -41.5736     0.0000     0.0000 </r>
       <r>   -41.3827     0.0000     0.0000 </r>
       <r>   -41.1917     0.0000     0.0000 </r>
       <r>   -41.0007     0.0000     0.0000 </r>
       <r>   -40.8098     0.0000     0.0000 </r>
       <r>   -40.6188     0.0000     0.0000 </r>
       <r>   -40.4278     0.0000     0.0000 </r>
       <r>   -40.2369     0.0000     0.0000 </r>
       <r>   -40.0459     0.0000     0.0000 </r>
       <r>   -39.8549     0.0000     0.0000 </r>
       <r>   -39.6640     0.0000     0.0000 </r>
       <r>   -39.4730     0.0000    16.0000 </r>
       <r>   -39.2820     0.0000    22.0000 </r>
       <r>   -39.0911     0.0000    28.0000 </r>
       <r>   -38.9001     0.0000    28.0000 </r>
       <r>   -38.7091     0.0000    28.0000 </r>
       <r>   -38.5181     0.0000    28.0000 </r>
       <r>   -38.3272     0.0000    28.0000 </r>
       <r>   -38.1362     0.0000    28.0000 </r>
       <r>   -37.9452     0.0000    28.0000 </r>
       <r>   -37.7543     0.0000    28.0000 </r>
       <r>   -37.5633     0.0000    28.0000 </r>
       <r>   -37.3723     0.0000    28.0000 </r>
       <r>   -37.1814     0.0000    28.0000 </r>
       <r>   -36.9904     0.0000    28.0000 </r>
       <r>   -36.7994     0.0000    28.0000 </r>
       <r>   -36.6085     0.0000    28.0000 </r>
       <r>   -36.4175     0.0000    28.0000 </r>
       <r>   -36.2265     0.0000    28.0000 </r>
       <r>   -36.0356     0.0000    28.0000 </r>
       <r>   -35.8446     0.0000    28.0000 </r>
       <r>   -35.6536     0.0000    28.0000 </r>
       <r>   -35.4627     0.0000    28.0000 </r>
       <r>   -35.2717     0.0000    28.0000 </r>
       <r>   -35.0807     0.0000    28.0000 </r>
       <r>   -34.8898     0.0000    28.0000 </r>
       <r>   -34.6988     0.0000    28.0000 </r>
       <r>   -34.5078     0.0000    28.0000 </r>
       <r>   -34.3169     0.0000    28.0000 </r>
       <r>   -34.1259     0.0000    28.0000 </r>
       <r>   -33.9349     0.0000    28.0000 </r>
       <r>   -33.7440     0.0000    28.0000 </r>
       <r>   -33.5530     0.0000    28.0000 </r>
       <r>   -33.3620     0.0000    28.0000 </r>
       <r>   -33.1711     0.0000    28.0000 </r>
       <r>   -32.9801     0.0000    28.0000 </r>
       <r>   -32.7891     0.0000    28.0000 </r>
       <r>   -32.5982     0.0000    28.0000 </r>
       <r>   -32.4072     0.0000    28.0000 </r>
       <r>   -32.2162     0.0000    28.0000 </r>
       <r>   -32.0252     0.0000    28.0000 </r>
       <r>   -31.8343     0.0000    28.0000 </r>
       <r>   -31.6433     0.0000    28.0000 </r>
       <r>   -31.4523     0.0000    28.0000 </r>
       <r>   -31.2614     0.0000    28.0000 </r>
       <r>   -31.0704     0.0000    28.0000 </r>
       <r>   -30.8794     0.0000    28.0000 </r>
       <r>   -30.6885     0.0000    28.0000 </r>
       <r>   -30.4975     0.0000    28.0000 </r>
       <r>   -30.3065     0.0000    28.0000 </r>
       <r>   -30.1156     0.0000    28.0000 </r>
       <r>   -29.9246     0.0000    28.0000 </r>
       <r>   -29.7336     0.0000    28.0000 </r>
       <r>   -29.5427     0.0000    28.0000 </r>
       <r>   -29.3517     0.0000    28.0000 </r>
       <r>   -29.1607     0.0000    28.0000 </r>
       <r>   -28.9698     0.0000    28.0000 </r>
       <r>   -28.7788     0.0000    28.0000 </r>
       <r>   -28.5878     0.0000    28.0000 </r>
       <r>   -28.3969     0.0000    28.0000 </r>
       <r>   -28.2059     0.0000    28.0000 </r>
       <r>   -28.0149     0.0000    28.0000 </r>
       <r>   -27.8240     0.0000    28.0000 </r>
       <r>   -27.6330     0.0000    28.0000 </r>
       <r>   -27.4420     0.0000    28.0000 </r>
       <r>   -27.2511     0.0000    28.0000 </r>
       <r>   -27.0601     0.0000    28.0000 </r>
       <r>   -26.8691     0.0000    28.0000 </r>
       <r>   -26.6782     0.0000    28.0000 </r>
       <r>   -26.4872     0.0000    28.0000 </r>
       <r>   -26.2962     0.0000    28.0000 </r>
       <r>   -26.1053     0.0000    28.0000 </r>
       <r>   -25.9143     0.0000    28.0000 </r>
       <r>   -25.7233     0.0000    28.0000 </r>
       <r>   -25.5323     0.0000    28.0000 </r>
       <r>   -25.3414     0.0000    28.0000 </r>
       <r>   -25.1504     0.0000    28.0000 </r>
       <r>   -24.9594     0.0000    28.0000 </r>
       <r>   -24.7685     0.0000    28.0000 </r>
       <r>   -24.5775     0.0000    28.0000 </r>
       <r>   -24.3865     0.0000    28.0000 </r>
       <r>   -24.1956     0.0000    28.0000 </r>
       <r>   -24.0046     0.0000    28.0000 </r>
       <r>   -23.8136     0.0000    28.0000 </r>
       <r>   -23.6227     0.0000    28.0000 </r>
       <r>   -23.4317     0.0000    28.0000 </r>
       <r>   -23.2407     0.0000    28.0000 </r>
       <r>   -23.0498     0.0000    28.0000 </r>
       <r>   -22.8588     0.0000    28.0000 </r>
       <r>   -22.6678     0.0000    28.0000 </r>
       <r>   -22.4769     0.0000    28.0000 </r>
       <r>   -22.2859     0.0000    28.0000 </r>
       <r>   -22.0949     0.0000    28.0000 </r>
       <r>   -21.9040     0.0000    28.0000 </r>
       <r>   -21.7130     0.0000    28.0000 </r>
       <r>   -21.5220     0.0000    28.0000 </r>
       <r>   -21.3311     0.0000    28.0000 </r>
       <r>   -21.1401     0.0000    28.0000 </r>
       <r>   -20.9491     0.0000    28.0000 </r>
       <r>   -20.7582     0.0000    28.0000 </r>
       <r>   -20.5672     0.0000    28.0000 </r>
       <r>   -20.3762     0.0000    28.0000 </r>
       <r>   -20.1853     0.0000    28.0000 </r>
       <r>   -19.9943     0.0000    28.0000 </r>
       <r>   -19.8033     0.0000    28.0000 </r>
       <r>   -19.6124     0.0000    28.0000 </r>
       <r>   -19.4214     0.0000    28.0000 </r>
       <r>   -19.2304     0.0000    28.0000 </r>
       <r>   -19.0394     0.0000    28.0000 </r>
       <r>   -18.8485     0.0000    28.0000 </r>
       <r>   -18.6575     0.0000    28.0000 </r>
       <r>   -18.4665     0.0000    28.0000 </r>
       <r>   -18.2756     0.0000    92.0000 </r>
       <r>   -18.0846     0.0000   172.0000 </r>
       <r>   -17.8936     0.0000   188.0000 </r>
       <r>   -17.7027     0.0000   188.0000 </r>
       <r>   -17.5117     0.0000   188.0000 </r>
       <r>   -17.3207     0.0000   188.0000 </r>
       <r>   -17.1298     0.0000   188.0000 </r>
       <r>   -16.9388     0.0000   188.0000 </r>
       <r>   -16.7478     0.0000   188.0000 </r>
       <r>   -16.5569     0.0000   188.0000 </r>
       <r>   -16.3659     0.0000   188.0000 </r>
       <r>   -16.1749     0.0000   188.0000 </r>
       <r>   -15.9840     0.0000   188.0000 </r>
       <r>   -15.7930     0.0000   188.0000 </r>
       <r>   -15.6020     0.0000   188.0000 </r>
       <r>   -15.4111     0.0000   188.0000 </r>
       <r>   -15.2201     0.0000   188.0000 </r>
       <r>   -15.0291     0.0000   188.0000 </r>
       <r>   -14.8382     0.0000   188.0000 </r>
       <r>   -14.6472     0.0000   188.0000 </r>
       <r>   -14.4562     0.0000   188.0000 </r>
       <r>   -14.2653     0.0000   188.0000 </r>
       <r>   -14.0743     0.0000   188.0000 </r>
       <r>   -13.8833     0.0000   188.0000 </r>
       <r>   -13.6924     0.0000   188.0000 </r>
       <r>   -13.5014     0.0000   188.0000 </r>
       <r>   -13.3104     0.0000   188.0000 </r>
       <r>   -13.1195     0.0000   188.0000 </r>
       <r>   -12.9285     0.0000   188.0000 </r>
       <r>   -12.7375     0.0000   190.0000 </r>
       <r>   -12.5465     0.0000   194.0000 </r>
       <r>   -12.3556   116.6241   201.1287 </r>
       <r>   -12.1646     0.0000   220.0000 </r>
       <r>   -11.9736     0.0000   220.0000 </r>
       <r>   -11.7827     0.0000   220.0000 </r>
       <r>   -11.5917     0.0000   220.0000 </r>
       <r>   -11.4007     0.0000   220.0000 </r>
       <r>   -11.2098     0.0000   220.0000 </r>
       <r>   -11.0188     0.0000   220.0000 </r>
       <r>   -10.8278     0.0000   220.0000 </r>
       <r>   -10.6369     0.0000   220.0000 </r>
       <r>   -10.4459     0.0000   220.0000 </r>
       <r>   -10.2549     0.0000   220.0000 </r>
       <r>   -10.0640     0.0000   220.0000 </r>
       <r>    -9.8730     0.0000   220.0000 </r>
       <r>    -9.6820     0.0000   220.0000 </r>
       <r>    -9.4911     0.0000   220.0000 </r>
       <r>    -9.3001     0.0000   220.0000 </r>
       <r>    -9.1091     7.2634   220.3536 </r>
       <r>    -8.9182    12.8887   222.1348 </r>
       <r>    -8.7272     5.8960   223.9360 </r>
       <r>    -8.5362    15.2570   225.4571 </r>
       <r>    -8.3453    10.4205   228.0869 </r>
       <r>    -8.1543    23.2727   233.4773 </r>
       <r>    -7.9633     3.3618   235.9405 </r>
       <r>    -7.7724    36.4327   239.9773 </r>
       <r>    -7.5814    23.8646   245.7349 </r>
       <r>    -7.3904    12.4667   248.5368 </r>
       <r>    -7.1995     7.8470   251.8022 </r>
       <r>    -7.0085     0.0000   252.0000 </r>
       <r>    -6.8175     0.0000   252.0000 </r>
       <r>    -6.6266     0.0000   252.0000 </r>
       <r>    -6.4356     0.0000   252.0000 </r>
       <r>    -6.2446     0.0000   252.0000 </r>
       <r>    -6.0537     0.0016   252.0000 </r>
       <r>    -5.8627    21.7819   253.9468 </r>
       <r>    -5.6717    26.6285   258.7612 </r>
       <r>    -5.4807    21.1650   261.7587 </r>
       <r>    -5.2898    29.3091   267.1663 </r>
       <r>    -5.0988    23.8879   271.8210 </r>
       <r>    -4.9078    10.6873   274.9032 </r>
       <r>    -4.7169     1.2458   276.0232 </r>
       <r>    -4.5259     9.9711   277.0927 </r>
       <r>    -4.3349     9.6176   279.4637 </r>
       <r>    -4.1440     4.0093   280.5678 </r>
       <r>    -3.9530     6.7232   281.5927 </r>
       <r>    -3.7620     5.9174   283.1525 </r>
       <r>    -3.5711     1.8771   283.7255 </r>
       <r>    -3.3801     0.6450   283.9663 </r>
       <r>    -3.1891     0.0000   284.0000 </r>
       <r>    -2.9982     0.0000   284.0000 </r>
       <r>    -2.8072     0.0000   284.0000 </r>
       <r>    -2.6162     0.0000   284.0000 </r>
       <r>    -2.4253     0.0000   284.0000 </r>
       <r>    -2.2343     0.0000   284.0000 </r>
       <r>    -2.0433     0.0000   284.0000 </r>
       <r>    -1.8524     0.0000   284.0000 </r>
       <r>    -1.6614     0.0000   284.0000 </r>
       <r>    -1.4704     0.0000   284.0000 </r>
       <r>    -1.2795     0.0000   284.0000 </r>
       <r>    -1.0885     2.0608   284.0494 </r>
       <r>    -0.8975     7.0714   285.2295 </r>
       <r>    -0.7066     4.9130   286.3587 </r>
       <r>    -0.5156    13.2832   288.0112 </r>
       <r>    -0.3246     8.9053   290.2421 </r>
       <r>    -0.1337    14.8712   292.0231 </r>
       <r>     0.0573    26.4883   296.1758 </r>
       <r>     0.2483    35.3518   301.4502 </r>
       <r>     0.4392    35.2804   309.5301 </r>
       <r>     0.6302    46.6099   316.9536 </r>
       <r>     0.8212    24.7089   324.2457 </r>
       <r>     1.0122    31.6928   330.1609 </r>
       <r>     1.2031    33.8597   335.3082 </r>
       <r>     1.3941    71.9927   343.4612 </r>
       <r>     1.5851    44.6361   351.9027 </r>
       <r>     1.7760    40.9690   360.2983 </r>
       <r>     1.9670    54.9731   369.7951 </r>
       <r>     2.1580    70.9236   382.0294 </r>
       <r>     2.3489    30.1788   392.6357 </r>
       <r>     2.5399    31.9496   399.1478 </r>
       <r>     2.7309    68.1078   407.6423 </r>
       <r>     2.9218    61.2417   423.0065 </r>
       <r>     3.1128    64.0549   434.5563 </r>
       <r>     3.3038    55.7480   449.0230 </r>
       <r>     3.4947    24.1977   458.6222 </r>
       <r>     3.6857    25.0269   462.7841 </r>
       <r>     3.8767    16.6825   470.1452 </r>
       <r>     4.0676    12.2438   473.0183 </r>
       <r>     4.2586     7.4277   474.8965 </r>
       <r>     4.4496     2.6216   475.8559 </r>
       <r>     4.6405     0.0000   476.0000 </r>
       <r>     4.8315     0.0000   476.0000 </r>
       <r>     5.0225     0.0000   476.0000 </r>
       <r>     5.2134     0.0000   476.0000 </r>
       <r>     5.4044     0.0000   476.0000 </r>
       <r>     5.5954     1.8719   476.0677 </r>
       <r>     5.7863     7.4067   476.9540 </r>
       <r>     5.9773    10.3344   478.8147 </r>
       <r>     6.1683    34.1739   481.5338 </r>
       <r>     6.3592    13.7646   485.2681 </r>
       <r>     6.5502    12.4898   487.7416 </r>
       <r>     6.7412    12.7940   490.0995 </r>
       <r>     6.9321    14.6686   492.7218 </r>
       <r>     7.1231    16.7760   495.7111 </r>
       <r>     7.3141    19.8319   499.1614 </r>
       <r>     7.5051    27.3035   503.6178 </r>
       <r>     7.6960    42.6128   509.6289 </r>
       <r>     7.8870    22.8277   517.1433 </r>
       <r>     8.0780    32.3467   522.2625 </r>
       <r>     8.2689    27.6625   527.8849 </r>
       <r>     8.4599    44.6729   534.9280 </r>
       <r>     8.6509    24.4862   542.2360 </r>
       <r>     8.8418    15.0318   545.5691 </r>
       <r>     9.0328    33.0761   550.3128 </r>
       <r>     9.2238    35.1619   557.3051 </r>
       <r>     9.4147    32.5395   564.4529 </r>
       <r>     9.6057    20.1713   569.9737 </r>
       <r>     9.7967     1.4335   571.9768 </r>
       <r>     9.9876     0.0000   572.0000 </r>
       <r>    10.1786    11.3333   573.0076 </r>
       <r>    10.3696     9.4020   575.2316 </r>
       <r>    10.5605    20.1683   577.6668 </r>
       <r>    10.7515    17.1252   581.6253 </r>
       <r>    10.9425    30.6613   586.3521 </r>
       <r>    11.1334    35.6985   594.8279 </r>
       <r>    11.3244    19.9498   601.0977 </r>
       <r>    11.5154    21.8536   604.9818 </r>
       <r>    11.7063    25.6396   609.4103 </r>
       <r>    11.8973    14.2965   612.9846 </r>
       <r>    12.0883     7.1470   615.0384 </r>
       <r>    12.2792     1.9081   615.8555 </r>
       <r>    12.4702     0.0942   615.9978 </r>
       <r>    12.6612     0.0000   616.0000 </r>
       <r>    12.8521     0.0000   616.0000 </r>
       <r>    13.0431     0.0000   616.0000 </r>
       <r>    13.2341     0.0000   616.0000 </r>
       <r>    13.4250     0.0000   616.0000 </r>
       <r>    13.6160     0.0000   616.0000 </r>
       <r>    13.8070     0.0000   616.0000 </r>
       <r>    13.9980     0.0000   616.0000 </r>
       <r>    14.1889     0.0000   616.0000 </r>
       <r>    14.3799     0.0000   616.0000 </r>
       <r>    14.5709     0.0000   616.0000 </r>
       <r>    14.7618     0.0000   616.0000 </r>
       <r>    14.9528     0.0000   616.0000 </r>
       <r>    15.1438     0.0000   616.0000 </r>
      </set>
     </set>
    </array>
   </total>
  </dos>
 </calculation>
 <structure name="finalpos" >
  <crystal>
   <varray name="basis" >
    <v>      11.13499979       0.00020792       0.00011384 </v>
    <v>       0.00015778       9.40872139      -0.00072747 </v>
    <v>       0.00011399      -0.00085121      11.12625035 </v>
   </varray>
   <i name="volume">   1165.65396936 </i>
   <varray name="rec_basis" >
    <v>       0.08980692      -0.00000151      -0.00000092 </v>
    <v>      -0.00000198       0.10628437       0.00000813 </v>
    <v>      -0.00000092       0.00000695       0.08987754 </v>
   </varray>
  </crystal>
  <varray name="positions" >
   <v>       0.35939231       0.00011611       0.43772770 </v>
   <v>       0.11170323       0.01272661       0.21823389 </v>
   <v>       0.37419398      -0.00298872       0.19274427 </v>
   <v>       0.62448695      -0.00000470       0.43766391 </v>
   <v>       0.88377730      -0.00006472       0.43764490 </v>
   <v>       0.62466921       0.99968536       0.19052773 </v>
   <v>       0.86970793      -0.00029625       0.18753907 </v>
   <v>       0.12183501      -0.00004763       0.93763141 </v>
   <v>       0.11163915       0.98725269       0.65690830 </v>
   <v>       0.37418217       0.00286416       0.68258006 </v>
   <v>       0.63409098       0.00009528       0.93768374 </v>
   <v>       0.88002156       0.00001619       0.93761979 </v>
   <v>       0.62464816       0.00031922       0.68483821 </v>
   <v>       0.86973234       0.00034147       0.68771263 </v>
   <v>       0.37878978      -0.00000998       0.93759057 </v>
   <v>       0.00070036       0.30036550       0.06245924 </v>
   <v>       0.25130863       0.69071838       0.06229191 </v>
   <v>       0.25132194       0.29951638       0.31289798 </v>
   <v>       0.50050456       0.69976039       0.31292699 </v>
   <v>       0.50161633       0.30818170       0.06351728 </v>
   <v>       0.75234265       0.70002444       0.06334161 </v>
   <v>       0.75049395       0.30050642       0.31305003 </v>
   <v>      -0.00177899       0.70297052       0.31245332 </v>
   <v>      -0.00177738       0.29701421       0.56242793 </v>
   <v>       0.25132396       0.70050166       0.56201876 </v>
   <v>       0.25133740       0.30919575       0.81260370 </v>
   <v>       0.50161519       0.69183412       0.81142110 </v>
   <v>       0.50050181       0.30021181       0.56203024 </v>
   <v>       0.75049427       0.69952424       0.56190817 </v>
   <v>       0.75236380       0.30004496       0.81160374 </v>
   <v>       0.00070637       0.69965136       0.81242290 </v>
   <v>       0.25261397       0.34820329       0.06192345 </v>
   <v>       0.00116765       0.65537640       0.06231325 </v>
   <v>       0.50124956       0.34657865       0.31225045 </v>
   <v>       0.25162903       0.66758713       0.31146158 </v>
   <v>       0.75115287       0.34323849       0.06176239 </v>
   <v>       0.50148697       0.65247929       0.06126580 </v>
   <v>       0.00118346       0.33424778       0.31112603 </v>
   <v>       0.75035165       0.65114291       0.31196435 </v>
   <v>       0.25165153       0.33239707       0.56330496 </v>
   <v>       0.00117975       0.66582833       0.56363654 </v>
   <v>       0.50151245       0.34755427       0.81349256 </v>
   <v>       0.25261050       0.65170073       0.81285005 </v>
   <v>       0.75037203       0.34889405       0.56278341 </v>
   <v>       0.50124212       0.65338840       0.56251184 </v>
   <v>       0.00119565       0.34468149       0.81244261 </v>
   <v>       0.75115155       0.65679764       0.81299870 </v>
   <v>       0.49756274       0.08139433       0.05632053 </v>
   <v>      -0.01904286       0.91917416       0.30212649 </v>
   <v>       0.26219996       0.91430601       0.05160540 </v>
   <v>       0.26029720       0.08216068       0.29985180 </v>
   <v>       0.00134183       0.07882164       0.06192287 </v>
   <v>       0.50171566       0.92120759       0.31040137 </v>
   <v>       0.74921049       0.92228912       0.06247359 </v>
   <v>       0.74517420       0.07958614       0.31203960 </v>
   <v>       0.50166887       0.07876042       0.56475841 </v>
   <v>       0.00135234       0.92119943       0.81316006 </v>
   <v>       0.26029323       0.91783775       0.57533408 </v>
   <v>       0.26227206       0.08563921       0.82348493 </v>
   <v>       0.98093583       0.08083067       0.57298512 </v>
   <v>       0.49755854       0.91861939       0.81882270 </v>
   <v>       0.74517100       0.92044217       0.56317130 </v>
   <v>       0.74920331       0.07777845       0.81272273 </v>
  </varray>
 </structure>
</modeling>
