<?xml version="1.0" encoding="ISO-8859-1"?>
<modeling>
 <generator>
  <i name="program" type="string">vasp </i>
  <i name="version" type="string">5.4.4.18Apr17-6-g9f103f2a35  </i>
  <i name="subversion" type="string">(build Jul 31 2017 11:33:29) complex            parallel </i>
  <i name="platform" type="string">LinuxIFC </i>
  <i name="date" type="string">2021 09 29 </i>
  <i name="time" type="string">13:29:17 </i>
 </generator>
 <incar>
  <i type="string" name="SYSTEM"> La2O2S</i>
  <i type="string" name="PREC">normal</i>
  <i type="int" name="NELMIN">     4</i>
  <i type="int" name="IBRION">     2</i>
  <i type="int" name="NFREE">    10</i>
  <i name="EDIFF">      0.00000100</i>
  <i name="EDIFFG">     -0.01000000</i>
  <i type="int" name="NSW">     1</i>
  <i type="int" name="ISIF">     2</i>
  <i name="ENCUT">    600.00000000</i>
  <i name="ENAUG">    900.00000000</i>
  <i type="int" name="ISMEAR">    -5</i>
  <i type="logical" name="LWAVE"> F  </i>
  <i type="logical" name="LCHARG"> F  </i>
  <v type="int" name="KPOINT_BSE">    -1     0     0     0</v>
 </incar>
 <structure name="primitive_cell" >
  <crystal>
   <varray name="basis" >
    <v>      11.17850000       0.00000000       0.00000000 </v>
    <v>       0.00000000       9.57460000       0.00000000 </v>
    <v>       0.00000000       0.00000000      11.18240000 </v>
   </varray>
   <i name="volume">   1196.84853820 </i>
   <varray name="rec_basis" >
    <v>       0.08945744       0.00000000       0.00000000 </v>
    <v>       0.00000000       0.10444301       0.00000000 </v>
    <v>       0.00000000       0.00000000       0.08942624 </v>
   </varray>
  </crystal>
  <varray name="positions" >
   <v>       0.37539000       0.00017000       0.43687000 </v>
   <v>      -0.49987000      -0.07798000       0.31246000 </v>
   <v>       0.25013000       0.07798000       0.31246000 </v>
   <v>       0.49987000       0.07798000      -0.43754000 </v>
   <v>       0.24987000      -0.07798000      -0.43754000 </v>
   <v>      -0.37461000      -0.00016000       0.43687000 </v>
   <v>       0.37461000       0.00017000      -0.31313000 </v>
   <v>       0.49987000      -0.29519000       0.31282000 </v>
   <v>       0.24987000       0.29519000       0.31282000 </v>
   <v>      -0.49987000       0.29519000      -0.43719000 </v>
   <v>       0.25013000      -0.29519000      -0.43719000 </v>
   <v>       0.49995000       0.32677000       0.31286000 </v>
   <v>       0.24995000      -0.32677000       0.31286000 </v>
   <v>      -0.49995000      -0.32677000      -0.43714000 </v>
   <v>       0.25005000       0.32677000      -0.43714000 </v>
   <v>      -0.37539000      -0.00016000      -0.31313000 </v>
   <v>      -0.37539000      -0.00016000       0.18687000 </v>
   <v>       0.12461000      -0.00016000       0.18687000 </v>
   <v>       0.12461000      -0.00016000      -0.31313000 </v>
   <v>       0.49987000       0.07798000       0.06246000 </v>
   <v>      -0.24987000       0.07798000       0.31246000 </v>
   <v>      -0.25013000      -0.07798000      -0.43754000 </v>
   <v>       0.24987000      -0.07798000       0.06246000 </v>
   <v>       0.00013000      -0.07798000       0.31246000 </v>
   <v>      -0.49987000      -0.07798000      -0.18754000 </v>
   <v>      -0.00013000       0.07798000      -0.43754000 </v>
   <v>       0.25013000       0.07798000      -0.18754000 </v>
   <v>      -0.49987000       0.29519000       0.06281000 </v>
   <v>      -0.25013000       0.29519000       0.31282000 </v>
   <v>       0.25013000      -0.29519000       0.06281000 </v>
   <v>      -0.24987000      -0.29519000      -0.43719000 </v>
   <v>      -0.00013000      -0.29519000       0.31282000 </v>
   <v>       0.00013000       0.29519000      -0.43719000 </v>
   <v>       0.49987000      -0.29519000      -0.18718000 </v>
   <v>       0.24987000       0.29519000      -0.18718000 </v>
   <v>      -0.49995000      -0.32677000       0.06286000 </v>
   <v>       0.25005000       0.32677000       0.06286000 </v>
   <v>      -0.25005000      -0.32677000       0.31286000 </v>
   <v>      -0.24995000       0.32677000      -0.43714000 </v>
   <v>      -0.00005000       0.32677000       0.31286000 </v>
   <v>       0.00005000      -0.32677000      -0.43714000 </v>
   <v>       0.49995000       0.32677000      -0.18714000 </v>
   <v>       0.24995000      -0.32677000      -0.18714000 </v>
   <v>      -0.12461000       0.00017000       0.43687000 </v>
   <v>       0.37539000       0.00017000      -0.06313000 </v>
   <v>      -0.25013000      -0.07798000       0.06246000 </v>
   <v>      -0.00013000       0.07798000       0.06246000 </v>
   <v>      -0.24987000       0.07798000      -0.18754000 </v>
   <v>       0.00013000      -0.07798000      -0.18754000 </v>
   <v>      -0.24987000      -0.29519000       0.06281000 </v>
   <v>       0.00013000       0.29519000       0.06281000 </v>
   <v>      -0.25013000       0.29519000      -0.18718000 </v>
   <v>      -0.00013000      -0.29519000      -0.18718000 </v>
   <v>      -0.24995000       0.32677000       0.06286000 </v>
   <v>       0.00005000      -0.32677000       0.06286000 </v>
   <v>      -0.25005000      -0.32677000      -0.18714000 </v>
   <v>      -0.00005000       0.32677000      -0.18714000 </v>
   <v>      -0.12461000       0.00017000      -0.06313000 </v>
  </varray>
 </structure>
 <varray name="primitive_index" >
  <v type="int" >        1 </v>
  <v type="int" >       50 </v>
  <v type="int" >       45 </v>
  <v type="int" >       51 </v>
  <v type="int" >       52 </v>
  <v type="int" >        2 </v>
  <v type="int" >        9 </v>
  <v type="int" >       14 </v>
  <v type="int" >       13 </v>
  <v type="int" >       23 </v>
  <v type="int" >       20 </v>
  <v type="int" >       29 </v>
  <v type="int" >       30 </v>
  <v type="int" >       40 </v>
  <v type="int" >       35 </v>
  <v type="int" >        4 </v>
  <v type="int" >        7 </v>
  <v type="int" >        5 </v>
  <v type="int" >        8 </v>
  <v type="int" >       43 </v>
  <v type="int" >       49 </v>
  <v type="int" >       56 </v>
  <v type="int" >       44 </v>
  <v type="int" >       46 </v>
  <v type="int" >       58 </v>
  <v type="int" >       55 </v>
  <v type="int" >       53 </v>
  <v type="int" >       15 </v>
  <v type="int" >       17 </v>
  <v type="int" >       12 </v>
  <v type="int" >       24 </v>
  <v type="int" >       18 </v>
  <v type="int" >       19 </v>
  <v type="int" >       22 </v>
  <v type="int" >       21 </v>
  <v type="int" >       32 </v>
  <v type="int" >       27 </v>
  <v type="int" >       34 </v>
  <v type="int" >       39 </v>
  <v type="int" >       33 </v>
  <v type="int" >       36 </v>
  <v type="int" >       37 </v>
  <v type="int" >       38 </v>
  <v type="int" >        6 </v>
  <v type="int" >        3 </v>
  <v type="int" >       48 </v>
  <v type="int" >       47 </v>
  <v type="int" >       57 </v>
  <v type="int" >       54 </v>
  <v type="int" >       16 </v>
  <v type="int" >       11 </v>
  <v type="int" >       25 </v>
  <v type="int" >       26 </v>
  <v type="int" >       31 </v>
  <v type="int" >       28 </v>
  <v type="int" >       42 </v>
  <v type="int" >       41 </v>
  <v type="int" >       10 </v>
 </varray>
 <kpoints>
  <generation param="Gamma">
   <v type="int" name="divisions">       2        2        2 </v>
   <v name="usershift">      0.00000000       0.00000000       0.00000000 </v>
   <v name="genvec1">      0.50000000       0.00000000       0.00000000 </v>
   <v name="genvec2">      0.00000000       0.50000000       0.00000000 </v>
   <v name="genvec3">      0.00000000       0.00000000       0.50000000 </v>
   <v name="shift">      0.00000000       0.00000000       0.00000000 </v>
  </generation>
  <varray name="kpointlist" >
   <v>       0.00000000       0.00000000       0.00000000 </v>
   <v>       0.50000000       0.00000000       0.00000000 </v>
   <v>       0.00000000       0.50000000       0.00000000 </v>
   <v>       0.50000000       0.50000000       0.00000000 </v>
   <v>       0.00000000       0.00000000       0.50000000 </v>
   <v>       0.50000000       0.00000000       0.50000000 </v>
   <v>       0.00000000       0.50000000       0.50000000 </v>
   <v>       0.50000000       0.50000000       0.50000000 </v>
  </varray>
  <varray name="weights" >
   <v>       0.12500000 </v>
   <v>       0.12500000 </v>
   <v>       0.12500000 </v>
   <v>       0.12500000 </v>
   <v>       0.12500000 </v>
   <v>       0.12500000 </v>
   <v>       0.12500000 </v>
   <v>       0.12500000 </v>
  </varray>
  <varray name="tetrahedronlist"  type="int" >
   <v type="int" >        2        1        2        4        5 </v>
   <v type="int" >        2        1        3        4        5 </v>
   <v type="int" >        2        3        4        5        7 </v>
   <v type="int" >        2        2        4        5        6 </v>
   <v type="int" >        2        4        5        6        8 </v>
   <v type="int" >        2        4        5        7        8 </v>
   <v type="int" >        2        1        2        3        6 </v>
   <v type="int" >        2        2        3        4        6 </v>
   <v type="int" >        2        3        4        6        8 </v>
   <v type="int" >        2        1        3        5        6 </v>
   <v type="int" >        2        3        5        6        7 </v>
   <v type="int" >        2        3        6        7        8 </v>
   <v type="int" >        2        2        3        4        7 </v>
   <v type="int" >        2        1        2        3        7 </v>
   <v type="int" >        2        1        2        5        7 </v>
   <v type="int" >        2        2        4        7        8 </v>
   <v type="int" >        2        2        6        7        8 </v>
   <v type="int" >        2        2        5        6        7 </v>
   <v type="int" >        2        1        3        4        8 </v>
   <v type="int" >        2        1        2        4        8 </v>
   <v type="int" >        2        1        2        6        8 </v>
   <v type="int" >        2        1        3        7        8 </v>
   <v type="int" >        2        1        5        7        8 </v>
   <v type="int" >        2        1        5        6        8 </v>
  </varray>
  <i name="volumeweight">      0.02083333 </i>
 </kpoints>
 <parameters>
  <separator name="general" >
   <i type="string" name="SYSTEM">La2O2S</i>
   <i type="logical" name="LCOMPAT"> F  </i>
  </separator>
  <separator name="electronic" >
   <i type="string" name="PREC">normal</i>
   <i name="ENMAX">    600.00000000</i>
   <i name="ENAUG">    900.00000000</i>
   <i name="EDIFF">      0.00000100</i>
   <i type="int" name="IALGO">    38</i>
   <i type="int" name="IWAVPR">    11</i>
   <i type="int" name="NBANDS">   280</i>
   <i name="NELECT">    456.00000000</i>
   <i type="int" name="TURBO">     0</i>
   <i type="int" name="IRESTART">     0</i>
   <i type="int" name="NREBOOT">     0</i>
   <i type="int" name="NMIN">     0</i>
   <i name="EREF">      0.00000000</i>
   <separator name="electronic smearing" >
    <i type="int" name="ISMEAR">    -5</i>
    <i name="SIGMA">      0.20000000</i>
    <i name="KSPACING">      0.50000000</i>
    <i type="logical" name="KGAMMA"> T  </i>
   </separator>
   <separator name="electronic projectors" >
    <i type="logical" name="LREAL"> F  </i>
    <v name="ROPT">      0.00000000      0.00000000      0.00000000      0.00000000      0.00000000</v>
    <i type="int" name="LMAXPAW">  -100</i>
    <i type="int" name="LMAXMIX">     2</i>
    <i type="logical" name="NLSPLINE"> F  </i>
   </separator>
   <separator name="electronic startup" >
    <i type="int" name="ISTART">     0</i>
    <i type="int" name="ICHARG">     2</i>
    <i type="int" name="INIWAV">     1</i>
   </separator>
   <separator name="electronic spin" >
    <i type="int" name="ISPIN">     1</i>
    <i type="logical" name="LNONCOLLINEAR"> F  </i>
    <v name="MAGMOM">      1.00000000      1.00000000      1.00000000      1.00000000      1.00000000      1.00000000      1.00000000      1.00000000      1.00000000      1.00000000      1.00000000      1.00000000      1.00000000      1.00000000      1.00000000      1.00000000      1.00000000      1.00000000      1.00000000      1.00000000
      1.00000000      1.00000000      1.00000000      1.00000000      1.00000000      1.00000000      1.00000000      1.00000000      1.00000000      1.00000000      1.00000000      1.00000000      1.00000000      1.00000000      1.00000000      1.00000000      1.00000000      1.00000000      1.00000000      1.00000000
      1.00000000      1.00000000      1.00000000      1.00000000      1.00000000      1.00000000      1.00000000      1.00000000      1.00000000      1.00000000      1.00000000      1.00000000      1.00000000      1.00000000      1.00000000      1.00000000      1.00000000      1.00000000</v>
    <i name="NUPDOWN">     -1.00000000</i>
    <i type="logical" name="LSORBIT"> F  </i>
    <v name="SAXIS">      0.00000000      0.00000000      1.00000000</v>
    <i type="logical" name="LSPIRAL"> F  </i>
    <v name="QSPIRAL">      0.00000000      0.00000000      0.00000000</v>
    <i type="logical" name="LZEROZ"> F  </i>
   </separator>
   <separator name="electronic exchange-correlation" >
    <i type="logical" name="LASPH"> F  </i>
    <i type="logical" name="LMETAGGA"> F  </i>
   </separator>
   <separator name="electronic convergence" >
    <i type="int" name="NELM">    60</i>
    <i type="int" name="NELMDL">    -5</i>
    <i type="int" name="NELMIN">     4</i>
    <i name="ENINI">    600.00000000</i>
    <separator name="electronic convergence detail" >
     <i type="logical" name="LDIAG"> T  </i>
     <i type="logical" name="LSUBROT"> F  </i>
     <i name="WEIMIN">      0.00100000</i>
     <i name="EBREAK">      0.00000000</i>
     <i name="DEPER">      0.30000000</i>
     <i type="int" name="NRMM">     4</i>
     <i name="TIME">      0.40000000</i>
    </separator>
   </separator>
   <separator name="electronic mixer" >
    <i name="AMIX">      0.40000000</i>
    <i name="BMIX">      1.00000000</i>
    <i name="AMIN">      0.10000000</i>
    <i name="AMIX_MAG">      1.60000000</i>
    <i name="BMIX_MAG">      1.00000000</i>
    <separator name="electronic mixer details" >
     <i type="int" name="IMIX">     4</i>
     <i type="logical" name="MIXFIRST"> F  </i>
     <i type="int" name="MAXMIX">   -45</i>
     <i name="WC">    100.00000000</i>
     <i type="int" name="INIMIX">     1</i>
     <i type="int" name="MIXPRE">     1</i>
     <i type="int" name="MREMOVE">     5</i>
    </separator>
   </separator>
   <separator name="electronic dipolcorrection" >
    <i type="logical" name="LDIPOL"> F  </i>
    <i type="logical" name="LMONO"> F  </i>
    <i type="int" name="IDIPOL">     0</i>
    <i name="EPSILON">      1.00000000</i>
    <v name="DIPOL">   -100.00000000   -100.00000000   -100.00000000</v>
    <i name="EFIELD">      0.00000000</i>
   </separator>
  </separator>
  <separator name="grids" >
   <i type="int" name="NGX">    70</i>
   <i type="int" name="NGY">    60</i>
   <i type="int" name="NGZ">    70</i>
   <i type="int" name="NGXF">   140</i>
   <i type="int" name="NGYF">   120</i>
   <i type="int" name="NGZF">   140</i>
   <i type="logical" name="ADDGRID"> F  </i>
  </separator>
  <separator name="ionic" >
   <i type="int" name="NSW">     1</i>
   <i type="int" name="IBRION">     2</i>
   <i type="int" name="MDALGO">     0</i>
   <i type="int" name="ISIF">     2</i>
   <i name="PSTRESS">      0.00000000</i>
   <i name="EDIFFG">     -0.01000000</i>
   <i type="int" name="NFREE">    10</i>
   <i name="POTIM">      0.50000000</i>
   <i name="SMASS">     -3.00000000</i>
   <i name="SCALEE">      1.00000000</i>
  </separator>
  <separator name="ionic md" >
   <i name="TEBEG">      0.00010000</i>
   <i name="TEEND">      0.00010000</i>
   <i type="int" name="NBLOCK">     1</i>
   <i type="int" name="KBLOCK">     1</i>
   <i type="int" name="NPACO">   256</i>
   <i name="APACO">     16.00000000</i>
  </separator>
  <separator name="symmetry" >
   <i type="int" name="ISYM">     2</i>
   <i name="SYMPREC">      0.00001000</i>
  </separator>
  <separator name="dos" >
   <i type="int" name="LORBIT">     0</i>
   <v name="RWIGS">     -1.00000000     -1.00000000     -1.00000000     -1.00000000     -1.00000000</v>
   <i type="int" name="NEDOS">   301</i>
   <i name="EMIN">     10.00000000</i>
   <i name="EMAX">    -10.00000000</i>
   <i name="EFERMI">      0.00000000</i>
  </separator>
  <separator name="writing" >
   <i type="int" name="NWRITE">     2</i>
   <i type="logical" name="LWAVE"> F  </i>
   <i type="logical" name="LDOWNSAMPLE"> F  </i>
   <i type="logical" name="LCHARG"> F  </i>
   <i type="logical" name="LPARD"> F  </i>
   <i type="logical" name="LVTOT"> F  </i>
   <i type="logical" name="LVHAR"> F  </i>
   <i type="logical" name="LELF"> F  </i>
   <i type="logical" name="LOPTICS"> F  </i>
   <v name="STM">      0.00000000      0.00000000      0.00000000      0.00000000      0.00000000      0.00000000      0.00000000</v>
  </separator>
  <separator name="performance" >
   <i type="int" name="NPAR">    28</i>
   <i type="int" name="NSIM">     4</i>
   <i type="int" name="NBLK">    -1</i>
   <i type="logical" name="LPLANE"> T  </i>
   <i type="logical" name="LSCALAPACK"> T  </i>
   <i type="logical" name="LSCAAWARE"> F  </i>
   <i type="logical" name="LSCALU"> F  </i>
   <i type="logical" name="LASYNC"> F  </i>
   <i type="logical" name="LORBITALREAL"> F  </i>
  </separator>
  <separator name="miscellaneous" >
   <i type="int" name="IDIOT">     3</i>
   <i type="int" name="ISPECIAL">     0</i>
   <i type="logical" name="LMUSIC"> F  </i>
   <v name="POMASS">      7.01000000     24.30500000    208.98000000     32.06600000     16.00000000</v>
   <v name="DARWINR">      0.00000000      0.00000000      0.00000000      0.00000000      0.00000000</v>
   <v name="DARWINV">      1.00000000      1.00000000      1.00000000      1.00000000      1.00000000</v>
   <i type="logical" name="LCORR"> T  </i>
  </separator>
  <i type="logical" name="GGA_COMPAT"> T  </i>
  <i type="logical" name="LBERRY"> F  </i>
  <i type="int" name="ICORELEVEL">     0</i>
  <i type="logical" name="LDAU"> F  </i>
  <i type="int" name="I_CONSTRAINED_M">     0</i>
  <separator name="electronic exchange-correlation" >
   <i type="string" name="GGA">--</i>
   <i type="int" name="VOSKOWN">     0</i>
   <i type="logical" name="LHFCALC"> F  </i>
   <i type="string" name="PRECFOCK"></i>
   <i type="logical" name="LSYMGRAD"> F  </i>
   <i type="logical" name="LHFONE"> F  </i>
   <i type="logical" name="LRHFCALC"> F  </i>
   <i type="logical" name="LTHOMAS"> F  </i>
   <i type="logical" name="LMODELHF"> F  </i>
   <i name="ENCUT4O">     -1.00000000</i>
   <i type="int" name="EXXOEP">     0</i>
   <i type="int" name="FOURORBIT">     0</i>
   <i name="AEXX">      0.00000000</i>
   <i name="HFALPHA">      0.00000000</i>
   <i name="MCALPHA">      0.00000000</i>
   <i name="ALDAX">      1.00000000</i>
   <i name="AGGAX">      1.00000000</i>
   <i name="ALDAC">      1.00000000</i>
   <i name="AGGAC">      1.00000000</i>
   <i type="int" name="NKREDX">     1</i>
   <i type="int" name="NKREDY">     1</i>
   <i type="int" name="NKREDZ">     1</i>
   <i type="logical" name="SHIFTRED"> F  </i>
   <i type="logical" name="ODDONLY"> F  </i>
   <i type="logical" name="EVENONLY"> F  </i>
   <i type="int" name="LMAXFOCK">     0</i>
   <i type="int" name="NMAXFOCKAE">     0</i>
   <i type="logical" name="LFOCKAEDFT"> F  </i>
   <i name="HFSCREEN">      0.00000000</i>
   <i name="HFSCREENC">      0.00000000</i>
   <i type="int" name="NBANDSGWLOW">     0</i>
  </separator>
  <separator name="vdW DFT" >
   <i type="logical" name="LUSE_VDW"> F  </i>
   <i name="Zab_VDW">     -0.84910000</i>
   <i name="PARAM1">      0.12340000</i>
   <i name="PARAM2">      1.00000000</i>
   <i name="PARAM3">      0.00000000</i>
  </separator>
  <separator name="model GW" >
   <i type="int" name="MODEL_GW">     0</i>
   <i name="MODEL_EPS0">     12.38119177</i>
   <i name="MODEL_ALPHA">      1.00000000</i>
  </separator>
  <separator name="linear response parameters" >
   <i type="logical" name="LEPSILON"> F  </i>
   <i type="logical" name="LRPA"> F  </i>
   <i type="logical" name="LNABLA"> F  </i>
   <i type="logical" name="LVEL"> F  </i>
   <i type="int" name="KINTER">     0</i>
   <i name="CSHIFT">      0.10000000</i>
   <i name="OMEGAMAX">     -1.00000000</i>
   <i name="DEG_THRESHOLD">      0.00200000</i>
   <i name="RTIME">     -0.10000000</i>
   <i name="WPLASMAI">      0.00000000</i>
   <v name="DFIELD">      0.00000000      0.00000000      0.00000000</v>
   <v name="WPLASMA">      0.00000000      0.00000000      0.00000000      0.00000000      0.00000000      0.00000000      0.00000000      0.00000000      0.00000000</v>
  </separator>
  <separator name="orbital magnetization" >
   <i type="logical" name="NUCIND"> F  </i>
   <v name="MAGPOS">      0.00000000      0.00000000      0.00000000</v>
   <i type="logical" name="LNICSALL"> T  </i>
   <i type="logical" name="ORBITALMAG"> F  </i>
   <i type="logical" name="LMAGBLOCH"> F  </i>
   <i type="logical" name="LCHIMAG"> F  </i>
   <i type="logical" name="LGAUGE"> T  </i>
   <i type="int" name="MAGATOM">     0</i>
   <v name="MAGDIPOL">      0.00000000      0.00000000      0.00000000</v>
   <v name="AVECCONST">      0.00000000      0.00000000      0.00000000</v>
  </separator>
  <separator name="response functions" >
   <i type="logical" name="LADDER"> F  </i>
   <i type="logical" name="LRPAFORCE"> F  </i>
   <i type="logical" name="LFXC"> F  </i>
   <i type="logical" name="LHARTREE"> T  </i>
   <i type="int" name="IBSE">     0</i>
   <v type="int" name="KPOINT">    -1     0     0     0</v>
   <i type="logical" name="LTCTE"> F  </i>
   <i type="logical" name="LTETE"> F  </i>
   <i type="logical" name="LTRIPLET"> F  </i>
   <i type="logical" name="LFXCEPS"> F  </i>
   <i type="logical" name="LFXHEG"> F  </i>
   <i type="int" name="NATURALO">     2</i>
   <i type="logical" name="L2ORDER"> F  </i>
   <i type="logical" name="LMP2LT"> F  </i>
   <i type="logical" name="LUSEW"> F  </i>
   <i name="ENCUTGW">     -2.00000000</i>
   <i name="ENCUTGWSOFT">     -2.00000000</i>
   <i name="ENCUTLF">     -1.00000000</i>
   <i type="int" name="LMAXMP2">    -1</i>
   <i name="SCISSOR">      0.00000000</i>
   <i type="int" name="NOMEGA">     0</i>
   <i type="int" name="NOMEGAR">     0</i>
   <i type="int" name="NBANDSGW">    -1</i>
   <i type="int" name="NBANDSO">    -1</i>
   <i type="int" name="NBANDSV">    -1</i>
   <i type="int" name="NELM">     1</i>
   <i type="int" name="NELMHF">     1</i>
   <i type="int" name="DIM">     3</i>
   <i type="int" name="ANTIRES">     0</i>
   <i name="OMEGAMAX">    -30.00000000</i>
   <i name="OMEGAMIN">    -30.00000000</i>
   <i name="OMEGATL">   -200.00000000</i>
   <i type="int" name="OMEGAGRID">   140</i>
   <i name="CSHIFT">     -0.10000000</i>
   <i type="logical" name="SELFENERGY"> F  </i>
   <i type="logical" name="LSPECTRAL"> F  </i>
   <i type="logical" name="LSPECTRALGW"> F  </i>
   <i type="logical" name="LSINGLES"> F  </i>
   <i type="logical" name="LFERMIGW"> F  </i>
   <i type="logical" name="ODDONLYGW"> F  </i>
   <i type="logical" name="EVENONLYGW"> F  </i>
   <i type="int" name="NKREDLFX">     1</i>
   <i type="int" name="NKREDLFY">     1</i>
   <i type="int" name="NKREDLFZ">     1</i>
   <i type="int" name="MAXMEM">  2800</i>
   <i type="int" name="TELESCOPE">     0</i>
   <i type="int" name="TAUPAR">     1</i>
   <i type="int" name="OMEGAPAR">    -1</i>
   <i name="LAMBDA">      1.00000000</i>
  </separator>
  <separator name="External order field" >
   <i name="OFIELD_KAPPA">      0.00000000</i>
   <v name="OFIELD_K">      0.00000000      0.00000000      0.00000000</v>
   <i name="OFIELD_Q6_NEAR">      0.00000000</i>
   <i name="OFIELD_Q6_FAR">      0.00000000</i>
   <i name="OFIELD_A">      0.00000000</i>
  </separator>
 </parameters>
 <atominfo>
  <atoms>      58 </atoms>
  <types>       5 </types>
  <array name="atoms" >
   <dimension dim="1">ion</dimension>
   <field type="string">element</field>
   <field type="int">atomtype</field>
   <set>
    <rc><c>Li</c><c>   1</c></rc>
    <rc><c>Li</c><c>   1</c></rc>
    <rc><c>Li</c><c>   1</c></rc>
    <rc><c>Li</c><c>   1</c></rc>
    <rc><c>Mg</c><c>   2</c></rc>
    <rc><c>Mg</c><c>   2</c></rc>
    <rc><c>Mg</c><c>   2</c></rc>
    <rc><c>Mg</c><c>   2</c></rc>
    <rc><c>Mg</c><c>   2</c></rc>
    <rc><c>Mg</c><c>   2</c></rc>
    <rc><c>Bi</c><c>   3</c></rc>
    <rc><c>Bi</c><c>   3</c></rc>
    <rc><c>Bi</c><c>   3</c></rc>
    <rc><c>Bi</c><c>   3</c></rc>
    <rc><c>Bi</c><c>   3</c></rc>
    <rc><c>Bi</c><c>   3</c></rc>
    <rc><c>Bi</c><c>   3</c></rc>
    <rc><c>Bi</c><c>   3</c></rc>
    <rc><c>Bi</c><c>   3</c></rc>
    <rc><c>Bi</c><c>   3</c></rc>
    <rc><c>Bi</c><c>   3</c></rc>
    <rc><c>Bi</c><c>   3</c></rc>
    <rc><c>Bi</c><c>   3</c></rc>
    <rc><c>Bi</c><c>   3</c></rc>
    <rc><c>Bi</c><c>   3</c></rc>
    <rc><c>Bi</c><c>   3</c></rc>
    <rc><c>S </c><c>   4</c></rc>
    <rc><c>S </c><c>   4</c></rc>
    <rc><c>S </c><c>   4</c></rc>
    <rc><c>S </c><c>   4</c></rc>
    <rc><c>S </c><c>   4</c></rc>
    <rc><c>S </c><c>   4</c></rc>
    <rc><c>S </c><c>   4</c></rc>
    <rc><c>S </c><c>   4</c></rc>
    <rc><c>S </c><c>   4</c></rc>
    <rc><c>S </c><c>   4</c></rc>
    <rc><c>S </c><c>   4</c></rc>
    <rc><c>S </c><c>   4</c></rc>
    <rc><c>S </c><c>   4</c></rc>
    <rc><c>S </c><c>   4</c></rc>
    <rc><c>S </c><c>   4</c></rc>
    <rc><c>S </c><c>   4</c></rc>
    <rc><c>O </c><c>   5</c></rc>
    <rc><c>O </c><c>   5</c></rc>
    <rc><c>O </c><c>   5</c></rc>
    <rc><c>O </c><c>   5</c></rc>
    <rc><c>O </c><c>   5</c></rc>
    <rc><c>O </c><c>   5</c></rc>
    <rc><c>O </c><c>   5</c></rc>
    <rc><c>O </c><c>   5</c></rc>
    <rc><c>O </c><c>   5</c></rc>
    <rc><c>O </c><c>   5</c></rc>
    <rc><c>O </c><c>   5</c></rc>
    <rc><c>O </c><c>   5</c></rc>
    <rc><c>O </c><c>   5</c></rc>
    <rc><c>O </c><c>   5</c></rc>
    <rc><c>O </c><c>   5</c></rc>
    <rc><c>O </c><c>   5</c></rc>
   </set>
  </array>
  <array name="atomtypes" >
   <dimension dim="1">type</dimension>
   <field type="int">atomspertype</field>
   <field type="string">element</field>
   <field>mass</field>
   <field>valence</field>
   <field type="string">pseudopotential</field>
   <set>
    <rc><c>   4</c><c>Li</c><c>      7.01000000</c><c>      3.00000000</c><c>  PAW_PBE Li_sv 10Sep2004               </c></rc>
    <rc><c>   6</c><c>Mg</c><c>     24.30500000</c><c>      2.00000000</c><c>  PAW_PBE Mg 13Apr2007                  </c></rc>
    <rc><c>  16</c><c>Bi</c><c>    208.98000000</c><c>     15.00000000</c><c>  PAW_PBE Bi_d 06Sep2000                </c></rc>
    <rc><c>  16</c><c>S </c><c>     32.06600000</c><c>      6.00000000</c><c>  PAW_PBE S 06Sep2000                   </c></rc>
    <rc><c>  16</c><c>O </c><c>     16.00000000</c><c>      6.00000000</c><c>  PAW_PBE O 08Apr2002                   </c></rc>
   </set>
  </array>
 </atominfo>
 <structure name="initialpos" >
  <crystal>
   <varray name="basis" >
    <v>      11.17850000       0.00000000       0.00000000 </v>
    <v>       0.00000000       9.57460000       0.00000000 </v>
    <v>       0.00000000       0.00000000      11.18240000 </v>
   </varray>
   <i name="volume">   1196.84853820 </i>
   <varray name="rec_basis" >
    <v>       0.08945744       0.00000000       0.00000000 </v>
    <v>       0.00000000       0.10444301       0.00000000 </v>
    <v>       0.00000000       0.00000000       0.08942624 </v>
   </varray>
  </crystal>
  <varray name="positions" >
   <v>       0.37539000       0.00017000       0.43687000 </v>
   <v>       0.62539000       0.99984000       0.43687000 </v>
   <v>       0.37539000       0.00017000       0.93687000 </v>
   <v>       0.62461000       0.99984000       0.68687000 </v>
   <v>       0.12461000       0.99984000       0.18687000 </v>
   <v>       0.87539000       0.00017000       0.43687000 </v>
   <v>       0.62461000       0.99984000       0.18687000 </v>
   <v>       0.12461000       0.99984000       0.68687000 </v>
   <v>       0.37461000       0.00017000       0.68687000 </v>
   <v>       0.87539000       0.00017000       0.93687000 </v>
   <v>       0.00013000       0.29519000       0.06281000 </v>
   <v>       0.25013000       0.70481000       0.06281000 </v>
   <v>       0.24987000       0.29519000       0.31282000 </v>
   <v>       0.49987000       0.70481000       0.31282000 </v>
   <v>       0.50013000       0.29519000       0.06281000 </v>
   <v>       0.75013000       0.70481000       0.06281000 </v>
   <v>       0.74987000       0.29519000       0.31282000 </v>
   <v>       0.99987000       0.70481000       0.31282000 </v>
   <v>       0.00013000       0.29519000       0.56281000 </v>
   <v>       0.25013000       0.70481000       0.56281000 </v>
   <v>       0.24987000       0.29519000       0.81282000 </v>
   <v>       0.49987000       0.70481000       0.81282000 </v>
   <v>       0.50013000       0.29519000       0.56281000 </v>
   <v>       0.75013000       0.70481000       0.56281000 </v>
   <v>       0.74987000       0.29519000       0.81282000 </v>
   <v>       0.99987000       0.70481000       0.81282000 </v>
   <v>       0.25005000       0.32677000       0.06286000 </v>
   <v>       0.00005000       0.67323000       0.06286000 </v>
   <v>       0.49995000       0.32677000       0.31286000 </v>
   <v>       0.24995000       0.67323000       0.31286000 </v>
   <v>       0.75005000       0.32677000       0.06286000 </v>
   <v>       0.50005000       0.67323000       0.06286000 </v>
   <v>       0.99995000       0.32677000       0.31286000 </v>
   <v>       0.74995000       0.67323000       0.31286000 </v>
   <v>       0.25005000       0.32677000       0.56286000 </v>
   <v>       0.00005000       0.67323000       0.56286000 </v>
   <v>       0.49995000       0.32677000       0.81286000 </v>
   <v>       0.24995000       0.67323000       0.81286000 </v>
   <v>       0.75005000       0.32677000       0.56286000 </v>
   <v>       0.50005000       0.67323000       0.56286000 </v>
   <v>       0.99995000       0.32677000       0.81286000 </v>
   <v>       0.74995000       0.67323000       0.81286000 </v>
   <v>       0.49987000       0.07798000       0.06246000 </v>
   <v>       0.24987000       0.92202000       0.06246000 </v>
   <v>       0.25013000       0.07798000       0.31246000 </v>
   <v>       0.00013000       0.92202000       0.31246000 </v>
   <v>       0.99987000       0.07798000       0.06246000 </v>
   <v>       0.74987000       0.92202000       0.06246000 </v>
   <v>       0.75013000       0.07798000       0.31246000 </v>
   <v>       0.50013000       0.92202000       0.31246000 </v>
   <v>       0.49987000       0.07798000       0.56246000 </v>
   <v>       0.24987000       0.92202000       0.56246000 </v>
   <v>       0.25013000       0.07798000       0.81246000 </v>
   <v>       0.00013000       0.92202000       0.81246000 </v>
   <v>       0.99987000       0.07798000       0.56246000 </v>
   <v>       0.74987000       0.92202000       0.56246000 </v>
   <v>       0.75013000       0.07798000       0.81246000 </v>
   <v>       0.50013000       0.92202000       0.81246000 </v>
  </varray>
 </structure>
 <calculation>
  <scstep>
   <time name="dav">   61.28   61.33</time>
   <time name="total">   61.36   61.41</time>
   <energy>
    <i name="alphaZ">   1054.17224280 </i>
    <i name="ewald"> -30176.45968256 </i>
    <i name="hartreedc"> -12708.50343407 </i>
    <i name="XCdc">   1173.26371185 </i>
    <i name="pawpsdc">  36541.05238669 </i>
    <i name="pawaedc"> -35795.85877930 </i>
    <i name="eentropy">      0.00000000 </i>
    <i name="bandstr">   1910.61674491 </i>
    <i name="atom">  43643.51795008 </i>
    <i name="e_fr_energy">   5641.80114040 </i>
    <i name="e_wo_entrp">   5641.80114040 </i>
    <i name="e_0_energy">   5641.80114040 </i>
   </energy>
  </scstep>
  <scstep>
   <time name="dav">   61.41   61.54</time>
   <time name="total">   61.42   61.55</time>
   <energy>
    <i name="e_fr_energy">    740.17070912 </i>
    <i name="e_wo_entrp">    740.17070912 </i>
    <i name="e_0_energy">    740.17070912 </i>
   </energy>
  </scstep>
  <scstep>
   <time name="dav">   71.78   72.26</time>
   <time name="total">   71.78   72.27</time>
   <energy>
    <i name="e_fr_energy">   -246.81073195 </i>
    <i name="e_wo_entrp">   -246.81073195 </i>
    <i name="e_0_energy">   -246.81073195 </i>
   </energy>
  </scstep>
  <scstep>
   <time name="dav">   71.32   72.62</time>
   <time name="total">   71.33   72.63</time>
   <energy>
    <i name="e_fr_energy">   -332.33892843 </i>
    <i name="e_wo_entrp">   -332.33892843 </i>
    <i name="e_0_energy">   -332.33892843 </i>
   </energy>
  </scstep>
  <scstep>
   <time name="dav">   93.67   93.75</time>
   <time name="total">   94.39   94.47</time>
   <energy>
    <i name="e_fr_energy">   -338.32033491 </i>
    <i name="e_wo_entrp">   -338.32033491 </i>
    <i name="e_0_energy">   -338.32033491 </i>
   </energy>
  </scstep>
  <scstep>
   <time name="dav">   86.55   86.81</time>
   <time name="total">   87.33   87.60</time>
   <energy>
    <i name="e_fr_energy">   -284.34659379 </i>
    <i name="e_wo_entrp">   -284.34659379 </i>
    <i name="e_0_energy">   -284.34659379 </i>
   </energy>
  </scstep>
  <scstep>
   <time name="dav">   66.08   66.22</time>
   <time name="total">   66.86   67.00</time>
   <energy>
    <i name="e_fr_energy">   -286.48607135 </i>
    <i name="e_wo_entrp">   -286.48607135 </i>
    <i name="e_0_energy">   -286.48607135 </i>
   </energy>
  </scstep>
  <scstep>
   <time name="dav">   73.91   73.95</time>
   <time name="total">   74.69   74.74</time>
   <energy>
    <i name="e_fr_energy">   -285.65490344 </i>
    <i name="e_wo_entrp">   -285.65490344 </i>
    <i name="e_0_energy">   -285.65490344 </i>
   </energy>
  </scstep>
  <scstep>
   <time name="dav">   79.71   80.03</time>
   <time name="total">   80.50   80.82</time>
   <energy>
    <i name="e_fr_energy">   -285.25156360 </i>
    <i name="e_wo_entrp">   -285.25156360 </i>
    <i name="e_0_energy">   -285.25156360 </i>
   </energy>
  </scstep>
  <scstep>
   <time name="dav">   70.49   70.88</time>
   <time name="total">   71.27   71.67</time>
   <energy>
    <i name="e_fr_energy">   -285.26914436 </i>
    <i name="e_wo_entrp">   -285.26914436 </i>
    <i name="e_0_energy">   -285.26914436 </i>
   </energy>
  </scstep>
  <scstep>
   <time name="dav">   83.75   84.92</time>
   <time name="total">   84.54   85.70</time>
   <energy>
    <i name="e_fr_energy">   -285.27447763 </i>
    <i name="e_wo_entrp">   -285.27447763 </i>
    <i name="e_0_energy">   -285.27447763 </i>
   </energy>
  </scstep>
  <scstep>
   <time name="dav">   76.77   77.49</time>
   <time name="total">   77.56   78.28</time>
   <energy>
    <i name="e_fr_energy">   -285.27748242 </i>
    <i name="e_wo_entrp">   -285.27748242 </i>
    <i name="e_0_energy">   -285.27748242 </i>
   </energy>
  </scstep>
  <scstep>
   <time name="dav">   72.62   72.70</time>
   <time name="total">   73.41   73.48</time>
   <energy>
    <i name="e_fr_energy">   -285.27856803 </i>
    <i name="e_wo_entrp">   -285.27856803 </i>
    <i name="e_0_energy">   -285.27856803 </i>
   </energy>
  </scstep>
  <scstep>
   <time name="dav">   69.20   69.31</time>
   <time name="total">   69.98   70.10</time>
   <energy>
    <i name="e_fr_energy">   -285.27883710 </i>
    <i name="e_wo_entrp">   -285.27883710 </i>
    <i name="e_0_energy">   -285.27883710 </i>
   </energy>
  </scstep>
  <scstep>
   <time name="dav">   81.11   81.21</time>
   <time name="total">   81.90   81.99</time>
   <energy>
    <i name="e_fr_energy">   -285.27886264 </i>
    <i name="e_wo_entrp">   -285.27886264 </i>
    <i name="e_0_energy">   -285.27886264 </i>
   </energy>
  </scstep>
  <scstep>
   <time name="dav">   64.27   64.28</time>
   <time name="total">   65.05   65.06</time>
   <energy>
    <i name="e_fr_energy">   -285.27888028 </i>
    <i name="e_wo_entrp">   -285.27888028 </i>
    <i name="e_0_energy">   -285.27888028 </i>
   </energy>
  </scstep>
  <scstep>
   <time name="dav">   71.08   71.42</time>
   <time name="total">   71.86   72.20</time>
   <energy>
    <i name="e_fr_energy">   -285.27888183 </i>
    <i name="e_wo_entrp">   -285.27888183 </i>
    <i name="e_0_energy">   -285.27888183 </i>
   </energy>
  </scstep>
  <scstep>
   <time name="dav">   57.79   57.79</time>
   <time name="total">   57.86   57.87</time>
   <energy>
    <i name="alphaZ">   1054.17224280 </i>
    <i name="ewald"> -30176.45968256 </i>
    <i name="hartreedc"> -12948.45263805 </i>
    <i name="XCdc">   1198.67146219 </i>
    <i name="pawpsdc">  43572.43645107 </i>
    <i name="pawaedc"> -42799.97230943 </i>
    <i name="eentropy">      0.00000000 </i>
    <i name="bandstr">  -3829.19235826 </i>
    <i name="atom">  43643.51795008 </i>
    <i name="e_fr_energy">   -285.27888216 </i>
    <i name="e_wo_entrp">   -285.27888216 </i>
    <i name="e_0_energy">   -285.27888216 </i>
   </energy>
  </scstep>
  <structure>
   <crystal>
    <varray name="basis" >
     <v>      11.17850000       0.00000000       0.00000000 </v>
     <v>       0.00000000       9.57460000       0.00000000 </v>
     <v>       0.00000000       0.00000000      11.18240000 </v>
    </varray>
    <i name="volume">   1196.84853820 </i>
    <varray name="rec_basis" >
     <v>       0.08945744       0.00000000       0.00000000 </v>
     <v>       0.00000000       0.10444301       0.00000000 </v>
     <v>       0.00000000       0.00000000       0.08942624 </v>
    </varray>
   </crystal>
   <varray name="positions" >
    <v>       0.37539000       0.00017000       0.43687000 </v>
    <v>       0.62539000       0.99984000       0.43687000 </v>
    <v>       0.37539000       0.00017000       0.93687000 </v>
    <v>       0.62461000       0.99984000       0.68687000 </v>
    <v>       0.12461000       0.99984000       0.18687000 </v>
    <v>       0.87539000       0.00017000       0.43687000 </v>
    <v>       0.62461000       0.99984000       0.18687000 </v>
    <v>       0.12461000       0.99984000       0.68687000 </v>
    <v>       0.37461000       0.00017000       0.68687000 </v>
    <v>       0.87539000       0.00017000       0.93687000 </v>
    <v>       0.00013000       0.29519000       0.06281000 </v>
    <v>       0.25013000       0.70481000       0.06281000 </v>
    <v>       0.24987000       0.29519000       0.31282000 </v>
    <v>       0.49987000       0.70481000       0.31282000 </v>
    <v>       0.50013000       0.29519000       0.06281000 </v>
    <v>       0.75013000       0.70481000       0.06281000 </v>
    <v>       0.74987000       0.29519000       0.31282000 </v>
    <v>       0.99987000       0.70481000       0.31282000 </v>
    <v>       0.00013000       0.29519000       0.56281000 </v>
    <v>       0.25013000       0.70481000       0.56281000 </v>
    <v>       0.24987000       0.29519000       0.81282000 </v>
    <v>       0.49987000       0.70481000       0.81282000 </v>
    <v>       0.50013000       0.29519000       0.56281000 </v>
    <v>       0.75013000       0.70481000       0.56281000 </v>
    <v>       0.74987000       0.29519000       0.81282000 </v>
    <v>       0.99987000       0.70481000       0.81282000 </v>
    <v>       0.25005000       0.32677000       0.06286000 </v>
    <v>       0.00005000       0.67323000       0.06286000 </v>
    <v>       0.49995000       0.32677000       0.31286000 </v>
    <v>       0.24995000       0.67323000       0.31286000 </v>
    <v>       0.75005000       0.32677000       0.06286000 </v>
    <v>       0.50005000       0.67323000       0.06286000 </v>
    <v>       0.99995000       0.32677000       0.31286000 </v>
    <v>       0.74995000       0.67323000       0.31286000 </v>
    <v>       0.25005000       0.32677000       0.56286000 </v>
    <v>       0.00005000       0.67323000       0.56286000 </v>
    <v>       0.49995000       0.32677000       0.81286000 </v>
    <v>       0.24995000       0.67323000       0.81286000 </v>
    <v>       0.75005000       0.32677000       0.56286000 </v>
    <v>       0.50005000       0.67323000       0.56286000 </v>
    <v>       0.99995000       0.32677000       0.81286000 </v>
    <v>       0.74995000       0.67323000       0.81286000 </v>
    <v>       0.49987000       0.07798000       0.06246000 </v>
    <v>       0.24987000       0.92202000       0.06246000 </v>
    <v>       0.25013000       0.07798000       0.31246000 </v>
    <v>       0.00013000       0.92202000       0.31246000 </v>
    <v>       0.99987000       0.07798000       0.06246000 </v>
    <v>       0.74987000       0.92202000       0.06246000 </v>
    <v>       0.75013000       0.07798000       0.31246000 </v>
    <v>       0.50013000       0.92202000       0.31246000 </v>
    <v>       0.49987000       0.07798000       0.56246000 </v>
    <v>       0.24987000       0.92202000       0.56246000 </v>
    <v>       0.25013000       0.07798000       0.81246000 </v>
    <v>       0.00013000       0.92202000       0.81246000 </v>
    <v>       0.99987000       0.07798000       0.56246000 </v>
    <v>       0.74987000       0.92202000       0.56246000 </v>
    <v>       0.75013000       0.07798000       0.81246000 </v>
    <v>       0.50013000       0.92202000       0.81246000 </v>
   </varray>
  </structure>
  <varray name="forces" >
   <v>      -0.42818988       0.06795190      -0.95083659 </v>
   <v>      -0.22944795      -0.12412189       0.19727008 </v>
   <v>       0.08256578      -0.06724493       0.94875260 </v>
   <v>       0.83589780       0.00034581       0.54270492 </v>
   <v>       0.36187718       0.01316026      -0.03627791 </v>
   <v>       0.79601140      -0.12027120       0.13287844 </v>
   <v>      -0.32044976       0.00420993      -1.03109657 </v>
   <v>      -1.61824520       0.00949277       0.09543132 </v>
   <v>       0.77803534      -0.11037247       0.32211282 </v>
   <v>      -0.20022881       0.11692207      -0.06007357 </v>
   <v>       0.05030251      -0.06977361      -0.00015876 </v>
   <v>       0.12106825       1.01985770       0.04252070 </v>
   <v>       0.09436621      -1.02237396      -0.18974668 </v>
   <v>      -0.29529714      -0.04318891      -0.29271813 </v>
   <v>      -0.13004067      -1.01614118      -0.05486627 </v>
   <v>      -0.06876695       0.09055163      -0.10016536 </v>
   <v>       0.10376302       1.00656356      -0.27241677 </v>
   <v>       0.11642896       0.06105861      -0.15314740 </v>
   <v>      -0.07743123      -0.03472202      -0.00673695 </v>
   <v>      -0.15601488      -1.09827170      -0.41293169 </v>
   <v>      -0.10798235       1.07978361       0.55023294 </v>
   <v>       0.30774933      -0.06814549       0.41689735 </v>
   <v>       0.14247642       1.09301939      -0.08783412 </v>
   <v>       0.06853308      -0.04842052       0.29145114 </v>
   <v>      -0.08002577      -1.01317502       0.05587750 </v>
   <v>      -0.09418209       0.05123189       0.13893395 </v>
   <v>      -0.12722033       0.17211237      -0.15341185 </v>
   <v>      -0.09273842      -0.13505056      -0.00659423 </v>
   <v>       0.23690948       0.13358365       0.24318410 </v>
   <v>      -0.01680685      -0.13944205       0.22888217 </v>
   <v>       0.08215402       0.13776372       0.18200208 </v>
   <v>       0.13614213      -0.15331653       0.04424050 </v>
   <v>      -0.18926674       0.09806313       0.09027183 </v>
   <v>      -0.02753081      -0.11125885       0.10796392 </v>
   <v>       0.11593794       0.03679973       0.28304913 </v>
   <v>       0.08415658      -0.05527424       0.00859799 </v>
   <v>      -0.24946195       0.11392841      -0.33254773 </v>
   <v>       0.03291253      -0.08526242      -0.36859071 </v>
   <v>      -0.07209974       0.09853355      -0.23231470 </v>
   <v>      -0.12993743      -0.11612756       0.04808605 </v>
   <v>       0.19597352       0.09804921      -0.09144460 </v>
   <v>       0.02289961      -0.12849109      -0.05309156 </v>
   <v>       0.54007302       0.97175810       0.49993538 </v>
   <v>      -0.50292624      -1.00081962       0.36574899 </v>
   <v>      -0.45182425       0.95173252      -0.28327582 </v>
   <v>      -0.17029712      -0.28044057       0.10957778 </v>
   <v>      -0.06807387       0.32765695      -0.02160025 </v>
   <v>       0.05439832      -0.33416103       0.11391077 </v>
   <v>      -0.62669891      -0.65182689       0.70747198 </v>
   <v>       1.20927399       0.01177385       0.34373937 </v>
   <v>      -0.55516722      -0.85629066       0.46042411 </v>
   <v>       0.65731959       0.89772738       1.62401099 </v>
   <v>       0.55588762      -0.85225308      -1.76130751 </v>
   <v>       0.16569480      -0.27405862      -0.12122921 </v>
   <v>       0.07647676       0.21044127       0.01201821 </v>
   <v>      -0.18571495       0.05819068      -1.24023920 </v>
   <v>       0.45833730       0.94342107       0.40157614 </v>
   <v>      -1.21155499       0.13461197      -1.29510109 </v>
  </varray>
  <varray name="stress" >
   <v>      -6.66865199      -0.13543579      -0.94346903 </v>
   <v>      -0.13543589     -12.81612572       0.31468092 </v>
   <v>      -0.94346921       0.31468095     -10.39955150 </v>
  </varray>
  <energy>
   <i name="e_fr_energy">   -297.08167412 </i>
   <i name="e_wo_entrp">   -297.08167412 </i>
   <i name="e_0_energy">      0.00000000 </i>
  </energy>
  <time name="totalsc"> 1433.47 1439.34</time>
  <eigenvalues>
   <array>
    <dimension dim="1">band</dimension>
    <dimension dim="2">kpoint</dimension>
    <dimension dim="3">spin</dimension>
    <field>eigene</field>
    <field>occ</field>
    <set>
     <set comment="spin 1">
      <set comment="kpoint 1">
       <r>  -40.3223    1.0000 </r>
       <r>  -40.0612    1.0000 </r>
       <r>  -39.9000    1.0000 </r>
       <r>  -39.6173    1.0000 </r>
       <r>  -19.0127    1.0000 </r>
       <r>  -18.9842    1.0000 </r>
       <r>  -18.9306    1.0000 </r>
       <r>  -18.9245    1.0000 </r>
       <r>  -18.9235    1.0000 </r>
       <r>  -18.9118    1.0000 </r>
       <r>  -18.9048    1.0000 </r>
       <r>  -18.8871    1.0000 </r>
       <r>  -18.8467    1.0000 </r>
       <r>  -18.8388    1.0000 </r>
       <r>  -18.8340    1.0000 </r>
       <r>  -18.8226    1.0000 </r>
       <r>  -18.8182    1.0000 </r>
       <r>  -18.8148    1.0000 </r>
       <r>  -18.8086    1.0000 </r>
       <r>  -18.7965    1.0000 </r>
       <r>  -18.7779    1.0000 </r>
       <r>  -18.7681    1.0000 </r>
       <r>  -18.7603    1.0000 </r>
       <r>  -18.7515    1.0000 </r>
       <r>  -18.7441    1.0000 </r>
       <r>  -18.7407    1.0000 </r>
       <r>  -18.7348    1.0000 </r>
       <r>  -18.7322    1.0000 </r>
       <r>  -18.7215    1.0000 </r>
       <r>  -18.7191    1.0000 </r>
       <r>  -18.7143    1.0000 </r>
       <r>  -18.7108    1.0000 </r>
       <r>  -18.7062    1.0000 </r>
       <r>  -18.6999    1.0000 </r>
       <r>  -18.6994    1.0000 </r>
       <r>  -18.6932    1.0000 </r>
       <r>  -18.6910    1.0000 </r>
       <r>  -18.6871    1.0000 </r>
       <r>  -18.6845    1.0000 </r>
       <r>  -18.6778    1.0000 </r>
       <r>  -18.6715    1.0000 </r>
       <r>  -18.6655    1.0000 </r>
       <r>  -18.6224    1.0000 </r>
       <r>  -18.6074    1.0000 </r>
       <r>  -18.6050    1.0000 </r>
       <r>  -18.6034    1.0000 </r>
       <r>  -18.6023    1.0000 </r>
       <r>  -18.5959    1.0000 </r>
       <r>  -18.5933    1.0000 </r>
       <r>  -18.5789    1.0000 </r>
       <r>  -18.5741    1.0000 </r>
       <r>  -18.5735    1.0000 </r>
       <r>  -18.5646    1.0000 </r>
       <r>  -18.5612    1.0000 </r>
       <r>  -18.5532    1.0000 </r>
       <r>  -18.5434    1.0000 </r>
       <r>  -18.5373    1.0000 </r>
       <r>  -18.5350    1.0000 </r>
       <r>  -18.5138    1.0000 </r>
       <r>  -18.5099    1.0000 </r>
       <r>  -18.5066    1.0000 </r>
       <r>  -18.5027    1.0000 </r>
       <r>  -18.4977    1.0000 </r>
       <r>  -18.4905    1.0000 </r>
       <r>  -18.4544    1.0000 </r>
       <r>  -18.4480    1.0000 </r>
       <r>  -18.4455    1.0000 </r>
       <r>  -18.4402    1.0000 </r>
       <r>  -18.4330    1.0000 </r>
       <r>  -18.4325    1.0000 </r>
       <r>  -18.4230    1.0000 </r>
       <r>  -18.4220    1.0000 </r>
       <r>  -18.4170    1.0000 </r>
       <r>  -18.4139    1.0000 </r>
       <r>  -18.3549    1.0000 </r>
       <r>  -18.3526    1.0000 </r>
       <r>  -18.3133    1.0000 </r>
       <r>  -18.3051    1.0000 </r>
       <r>  -18.2871    1.0000 </r>
       <r>  -18.2789    1.0000 </r>
       <r>  -18.2465    1.0000 </r>
       <r>  -18.2446    1.0000 </r>
       <r>  -18.2186    1.0000 </r>
       <r>  -18.2153    1.0000 </r>
       <r>  -13.7397    1.0000 </r>
       <r>  -13.5543    1.0000 </r>
       <r>  -13.5356    1.0000 </r>
       <r>  -13.4657    1.0000 </r>
       <r>  -12.9251    1.0000 </r>
       <r>  -12.8497    1.0000 </r>
       <r>  -12.8197    1.0000 </r>
       <r>  -12.8016    1.0000 </r>
       <r>  -12.7625    1.0000 </r>
       <r>  -12.7422    1.0000 </r>
       <r>  -12.6371    1.0000 </r>
       <r>  -12.5887    1.0000 </r>
       <r>  -12.1121    1.0000 </r>
       <r>  -12.0971    1.0000 </r>
       <r>  -12.0194    1.0000 </r>
       <r>  -11.9852    1.0000 </r>
       <r>   -9.3849    1.0000 </r>
       <r>   -9.0891    1.0000 </r>
       <r>   -8.6196    1.0000 </r>
       <r>   -8.5702    1.0000 </r>
       <r>   -8.5140    1.0000 </r>
       <r>   -8.4703    1.0000 </r>
       <r>   -8.3959    1.0000 </r>
       <r>   -8.3469    1.0000 </r>
       <r>   -8.2884    1.0000 </r>
       <r>   -8.2477    1.0000 </r>
       <r>   -8.0881    1.0000 </r>
       <r>   -8.0747    1.0000 </r>
       <r>   -8.0482    1.0000 </r>
       <r>   -8.0319    1.0000 </r>
       <r>   -7.4092    1.0000 </r>
       <r>   -7.4009    1.0000 </r>
       <r>   -6.4412    1.0000 </r>
       <r>   -6.4343    1.0000 </r>
       <r>   -6.3991    1.0000 </r>
       <r>   -6.3914    1.0000 </r>
       <r>   -5.5818    1.0000 </r>
       <r>   -5.5241    1.0000 </r>
       <r>   -5.5201    1.0000 </r>
       <r>   -5.3953    1.0000 </r>
       <r>   -5.3508    1.0000 </r>
       <r>   -5.3106    1.0000 </r>
       <r>   -5.2741    1.0000 </r>
       <r>   -5.1986    1.0000 </r>
       <r>   -5.1179    1.0000 </r>
       <r>   -5.0621    1.0000 </r>
       <r>   -3.8589    1.0000 </r>
       <r>   -3.7125    1.0000 </r>
       <r>   -1.5443    1.0000 </r>
       <r>   -1.3798    1.0000 </r>
       <r>   -1.1808    1.0000 </r>
       <r>   -1.0366    1.0000 </r>
       <r>   -0.6565    1.0000 </r>
       <r>   -0.6152    1.0000 </r>
       <r>   -0.5595    1.0000 </r>
       <r>   -0.5340    1.0000 </r>
       <r>   -0.2540    1.0000 </r>
       <r>   -0.2326    1.0000 </r>
       <r>   -0.2172    1.0000 </r>
       <r>   -0.1972    1.0000 </r>
       <r>   -0.1918    1.0000 </r>
       <r>    0.0429    1.0000 </r>
       <r>    0.1382    1.0000 </r>
       <r>    0.1882    1.0000 </r>
       <r>    0.2790    1.0000 </r>
       <r>    0.3434    1.0000 </r>
       <r>    0.4639    1.0000 </r>
       <r>    0.5109    1.0000 </r>
       <r>    0.5288    1.0000 </r>
       <r>    0.5984    1.0000 </r>
       <r>    0.6515    1.0000 </r>
       <r>    0.6964    1.0000 </r>
       <r>    0.7116    1.0000 </r>
       <r>    0.7583    1.0000 </r>
       <r>    0.8146    1.0000 </r>
       <r>    0.8501    1.0000 </r>
       <r>    0.8771    1.0000 </r>
       <r>    0.9058    1.0000 </r>
       <r>    0.9280    1.0000 </r>
       <r>    0.9809    1.0000 </r>
       <r>    1.0213    1.0000 </r>
       <r>    1.0340    1.0000 </r>
       <r>    1.1045    1.0000 </r>
       <r>    1.1417    1.0000 </r>
       <r>    1.1683    1.0000 </r>
       <r>    1.2521    1.0000 </r>
       <r>    1.2757    1.0000 </r>
       <r>    1.3185    1.0000 </r>
       <r>    1.4144    1.0000 </r>
       <r>    1.4505    1.0000 </r>
       <r>    1.4721    1.0000 </r>
       <r>    1.5601    1.0000 </r>
       <r>    1.6002    1.0000 </r>
       <r>    1.6415    1.0000 </r>
       <r>    1.7343    1.0000 </r>
       <r>    1.7459    1.0000 </r>
       <r>    1.7746    1.0000 </r>
       <r>    1.8375    1.0000 </r>
       <r>    1.9399    1.0000 </r>
       <r>    1.9690    1.0000 </r>
       <r>    2.0572    1.0000 </r>
       <r>    2.1456    1.0000 </r>
       <r>    2.1627    1.0000 </r>
       <r>    2.1861    1.0000 </r>
       <r>    2.2488    1.0000 </r>
       <r>    2.3019    1.0000 </r>
       <r>    2.4392    1.0000 </r>
       <r>    2.4937    1.0000 </r>
       <r>    2.5122    1.0000 </r>
       <r>    2.5215    1.0000 </r>
       <r>    2.5404    1.0000 </r>
       <r>    2.5590    1.0000 </r>
       <r>    2.5710    1.0000 </r>
       <r>    2.6198    1.0000 </r>
       <r>    2.6348    1.0000 </r>
       <r>    2.6999    1.0000 </r>
       <r>    2.7083    1.0000 </r>
       <r>    2.7871    1.0000 </r>
       <r>    2.8218    1.0000 </r>
       <r>    2.8353    1.0000 </r>
       <r>    2.8567    1.0000 </r>
       <r>    2.8948    1.0000 </r>
       <r>    2.9140    1.0000 </r>
       <r>    2.9649    1.0000 </r>
       <r>    2.9726    1.0000 </r>
       <r>    3.0581    1.0000 </r>
       <r>    3.0671    1.0000 </r>
       <r>    3.0972    1.0000 </r>
       <r>    3.1237    1.0000 </r>
       <r>    3.1332    1.0000 </r>
       <r>    3.1664    1.0000 </r>
       <r>    3.1979    1.0000 </r>
       <r>    3.2248    1.0000 </r>
       <r>    3.3004    1.0000 </r>
       <r>    3.3358    1.0000 </r>
       <r>    3.3616    1.0000 </r>
       <r>    3.4426    1.0000 </r>
       <r>    3.5187    1.0000 </r>
       <r>    3.6501    1.0000 </r>
       <r>    3.7610    1.0000 </r>
       <r>    4.1193    1.0000 </r>
       <r>    4.1408    1.0000 </r>
       <r>    4.1831    1.0000 </r>
       <r>    4.1989    1.0000 </r>
       <r>    4.9521    0.0000 </r>
       <r>    4.9692    0.0000 </r>
       <r>    5.1340    0.0000 </r>
       <r>    5.1537    0.0000 </r>
       <r>    5.6710    0.0000 </r>
       <r>    5.6897    0.0000 </r>
       <r>    5.7902    0.0000 </r>
       <r>    5.8142    0.0000 </r>
       <r>    6.0523    0.0000 </r>
       <r>    6.0718    0.0000 </r>
       <r>    6.1050    0.0000 </r>
       <r>    6.1098    0.0000 </r>
       <r>    6.1765    0.0000 </r>
       <r>    6.1899    0.0000 </r>
       <r>    6.2185    0.0000 </r>
       <r>    6.2288    0.0000 </r>
       <r>    6.9924    0.0000 </r>
       <r>    7.0346    0.0000 </r>
       <r>    7.1601    0.0000 </r>
       <r>    7.2554    0.0000 </r>
       <r>    7.6169    0.0000 </r>
       <r>    7.7561    0.0000 </r>
       <r>    7.8104    0.0000 </r>
       <r>    7.8778    0.0000 </r>
       <r>    7.9240    0.0000 </r>
       <r>    7.9558    0.0000 </r>
       <r>    8.0482    0.0000 </r>
       <r>    8.1978    0.0000 </r>
       <r>    8.2305    0.0000 </r>
       <r>    8.4987    0.0000 </r>
       <r>    8.6069    0.0000 </r>
       <r>    8.7410    0.0000 </r>
       <r>    8.7588    0.0000 </r>
       <r>    8.7683    0.0000 </r>
       <r>    8.8327    0.0000 </r>
       <r>    8.9278    0.0000 </r>
       <r>    8.9482    0.0000 </r>
       <r>    9.0041    0.0000 </r>
       <r>    9.0439    0.0000 </r>
       <r>    9.0817    0.0000 </r>
       <r>    9.0920    0.0000 </r>
       <r>    9.1070    0.0000 </r>
       <r>    9.1660    0.0000 </r>
       <r>    9.1970    0.0000 </r>
       <r>    9.3398    0.0000 </r>
       <r>    9.3708    0.0000 </r>
       <r>    9.4446    0.0000 </r>
       <r>    9.4688    0.0000 </r>
       <r>    9.5926    0.0000 </r>
       <r>    9.6508    0.0000 </r>
       <r>    9.7471    0.0000 </r>
       <r>    9.7980    0.0000 </r>
      </set>
      <set comment="kpoint 2">
       <r>  -40.3223    1.0000 </r>
       <r>  -40.0612    1.0000 </r>
       <r>  -39.9000    1.0000 </r>
       <r>  -39.6173    1.0000 </r>
       <r>  -19.0126    1.0000 </r>
       <r>  -18.9841    1.0000 </r>
       <r>  -18.9306    1.0000 </r>
       <r>  -18.9244    1.0000 </r>
       <r>  -18.9235    1.0000 </r>
       <r>  -18.9117    1.0000 </r>
       <r>  -18.9049    1.0000 </r>
       <r>  -18.8870    1.0000 </r>
       <r>  -18.8468    1.0000 </r>
       <r>  -18.8390    1.0000 </r>
       <r>  -18.8340    1.0000 </r>
       <r>  -18.8226    1.0000 </r>
       <r>  -18.8182    1.0000 </r>
       <r>  -18.8146    1.0000 </r>
       <r>  -18.8086    1.0000 </r>
       <r>  -18.7965    1.0000 </r>
       <r>  -18.7780    1.0000 </r>
       <r>  -18.7681    1.0000 </r>
       <r>  -18.7603    1.0000 </r>
       <r>  -18.7516    1.0000 </r>
       <r>  -18.7441    1.0000 </r>
       <r>  -18.7407    1.0000 </r>
       <r>  -18.7348    1.0000 </r>
       <r>  -18.7322    1.0000 </r>
       <r>  -18.7214    1.0000 </r>
       <r>  -18.7191    1.0000 </r>
       <r>  -18.7143    1.0000 </r>
       <r>  -18.7108    1.0000 </r>
       <r>  -18.7061    1.0000 </r>
       <r>  -18.7000    1.0000 </r>
       <r>  -18.6994    1.0000 </r>
       <r>  -18.6933    1.0000 </r>
       <r>  -18.6910    1.0000 </r>
       <r>  -18.6869    1.0000 </r>
       <r>  -18.6849    1.0000 </r>
       <r>  -18.6777    1.0000 </r>
       <r>  -18.6714    1.0000 </r>
       <r>  -18.6654    1.0000 </r>
       <r>  -18.6224    1.0000 </r>
       <r>  -18.6073    1.0000 </r>
       <r>  -18.6050    1.0000 </r>
       <r>  -18.6034    1.0000 </r>
       <r>  -18.6023    1.0000 </r>
       <r>  -18.5959    1.0000 </r>
       <r>  -18.5933    1.0000 </r>
       <r>  -18.5788    1.0000 </r>
       <r>  -18.5740    1.0000 </r>
       <r>  -18.5735    1.0000 </r>
       <r>  -18.5646    1.0000 </r>
       <r>  -18.5612    1.0000 </r>
       <r>  -18.5532    1.0000 </r>
       <r>  -18.5434    1.0000 </r>
       <r>  -18.5373    1.0000 </r>
       <r>  -18.5350    1.0000 </r>
       <r>  -18.5138    1.0000 </r>
       <r>  -18.5101    1.0000 </r>
       <r>  -18.5066    1.0000 </r>
       <r>  -18.5025    1.0000 </r>
       <r>  -18.4982    1.0000 </r>
       <r>  -18.4899    1.0000 </r>
       <r>  -18.4544    1.0000 </r>
       <r>  -18.4480    1.0000 </r>
       <r>  -18.4455    1.0000 </r>
       <r>  -18.4402    1.0000 </r>
       <r>  -18.4330    1.0000 </r>
       <r>  -18.4328    1.0000 </r>
       <r>  -18.4230    1.0000 </r>
       <r>  -18.4217    1.0000 </r>
       <r>  -18.4170    1.0000 </r>
       <r>  -18.4141    1.0000 </r>
       <r>  -18.3549    1.0000 </r>
       <r>  -18.3526    1.0000 </r>
       <r>  -18.3133    1.0000 </r>
       <r>  -18.3051    1.0000 </r>
       <r>  -18.2871    1.0000 </r>
       <r>  -18.2789    1.0000 </r>
       <r>  -18.2465    1.0000 </r>
       <r>  -18.2446    1.0000 </r>
       <r>  -18.2186    1.0000 </r>
       <r>  -18.2153    1.0000 </r>
       <r>  -13.7390    1.0000 </r>
       <r>  -13.5555    1.0000 </r>
       <r>  -13.5357    1.0000 </r>
       <r>  -13.4650    1.0000 </r>
       <r>  -12.9264    1.0000 </r>
       <r>  -12.8461    1.0000 </r>
       <r>  -12.8225    1.0000 </r>
       <r>  -12.7988    1.0000 </r>
       <r>  -12.7652    1.0000 </r>
       <r>  -12.7425    1.0000 </r>
       <r>  -12.6362    1.0000 </r>
       <r>  -12.5892    1.0000 </r>
       <r>  -12.1154    1.0000 </r>
       <r>  -12.0932    1.0000 </r>
       <r>  -12.0193    1.0000 </r>
       <r>  -11.9858    1.0000 </r>
       <r>   -9.1843    1.0000 </r>
       <r>   -9.1596    1.0000 </r>
       <r>   -8.9101    1.0000 </r>
       <r>   -8.8823    1.0000 </r>
       <r>   -8.3765    1.0000 </r>
       <r>   -8.3748    1.0000 </r>
       <r>   -8.3659    1.0000 </r>
       <r>   -8.3584    1.0000 </r>
       <r>   -8.1896    1.0000 </r>
       <r>   -8.1869    1.0000 </r>
       <r>   -8.1790    1.0000 </r>
       <r>   -8.1707    1.0000 </r>
       <r>   -7.7391    1.0000 </r>
       <r>   -7.7367    1.0000 </r>
       <r>   -7.6297    1.0000 </r>
       <r>   -7.6253    1.0000 </r>
       <r>   -6.0558    1.0000 </r>
       <r>   -6.0269    1.0000 </r>
       <r>   -5.9894    1.0000 </r>
       <r>   -5.9467    1.0000 </r>
       <r>   -5.8855    1.0000 </r>
       <r>   -5.8506    1.0000 </r>
       <r>   -5.8167    1.0000 </r>
       <r>   -5.8036    1.0000 </r>
       <r>   -5.6658    1.0000 </r>
       <r>   -5.5764    1.0000 </r>
       <r>   -5.5317    1.0000 </r>
       <r>   -5.4860    1.0000 </r>
       <r>   -4.4736    1.0000 </r>
       <r>   -4.4666    1.0000 </r>
       <r>   -4.3099    1.0000 </r>
       <r>   -4.3021    1.0000 </r>
       <r>   -1.2486    1.0000 </r>
       <r>   -1.2155    1.0000 </r>
       <r>   -0.8725    1.0000 </r>
       <r>   -0.8631    1.0000 </r>
       <r>   -0.5772    1.0000 </r>
       <r>   -0.4693    1.0000 </r>
       <r>   -0.2450    1.0000 </r>
       <r>   -0.0567    1.0000 </r>
       <r>   -0.0363    1.0000 </r>
       <r>   -0.0088    1.0000 </r>
       <r>    0.0115    1.0000 </r>
       <r>    0.0294    1.0000 </r>
       <r>    0.0933    1.0000 </r>
       <r>    0.1574    1.0000 </r>
       <r>    0.2151    1.0000 </r>
       <r>    0.2234    1.0000 </r>
       <r>    0.3500    1.0000 </r>
       <r>    0.4015    1.0000 </r>
       <r>    0.4283    1.0000 </r>
       <r>    0.4766    1.0000 </r>
       <r>    0.5181    1.0000 </r>
       <r>    0.5516    1.0000 </r>
       <r>    0.6022    1.0000 </r>
       <r>    0.6235    1.0000 </r>
       <r>    0.6714    1.0000 </r>
       <r>    0.7085    1.0000 </r>
       <r>    0.7569    1.0000 </r>
       <r>    0.8238    1.0000 </r>
       <r>    0.8740    1.0000 </r>
       <r>    0.9137    1.0000 </r>
       <r>    0.9560    1.0000 </r>
       <r>    1.0191    1.0000 </r>
       <r>    1.0611    1.0000 </r>
       <r>    1.1239    1.0000 </r>
       <r>    1.1373    1.0000 </r>
       <r>    1.2121    1.0000 </r>
       <r>    1.2191    1.0000 </r>
       <r>    1.2553    1.0000 </r>
       <r>    1.2783    1.0000 </r>
       <r>    1.2975    1.0000 </r>
       <r>    1.3562    1.0000 </r>
       <r>    1.3823    1.0000 </r>
       <r>    1.4202    1.0000 </r>
       <r>    1.4455    1.0000 </r>
       <r>    1.4910    1.0000 </r>
       <r>    1.5450    1.0000 </r>
       <r>    1.5729    1.0000 </r>
       <r>    1.6012    1.0000 </r>
       <r>    1.6167    1.0000 </r>
       <r>    1.7248    1.0000 </r>
       <r>    1.8591    1.0000 </r>
       <r>    1.9029    1.0000 </r>
       <r>    1.9470    1.0000 </r>
       <r>    1.9999    1.0000 </r>
       <r>    2.0065    1.0000 </r>
       <r>    2.0522    1.0000 </r>
       <r>    2.0776    1.0000 </r>
       <r>    2.1222    1.0000 </r>
       <r>    2.1744    1.0000 </r>
       <r>    2.2250    1.0000 </r>
       <r>    2.2489    1.0000 </r>
       <r>    2.3305    1.0000 </r>
       <r>    2.3888    1.0000 </r>
       <r>    2.4206    1.0000 </r>
       <r>    2.4802    1.0000 </r>
       <r>    2.4942    1.0000 </r>
       <r>    2.5224    1.0000 </r>
       <r>    2.5477    1.0000 </r>
       <r>    2.6005    1.0000 </r>
       <r>    2.6567    1.0000 </r>
       <r>    2.6811    1.0000 </r>
       <r>    2.7131    1.0000 </r>
       <r>    2.7498    1.0000 </r>
       <r>    2.8076    1.0000 </r>
       <r>    2.8411    1.0000 </r>
       <r>    2.8649    1.0000 </r>
       <r>    2.8738    1.0000 </r>
       <r>    2.9122    1.0000 </r>
       <r>    2.9514    1.0000 </r>
       <r>    2.9709    1.0000 </r>
       <r>    2.9893    1.0000 </r>
       <r>    3.0347    1.0000 </r>
       <r>    3.1637    1.0000 </r>
       <r>    3.2628    1.0000 </r>
       <r>    3.2753    1.0000 </r>
       <r>    3.3397    1.0000 </r>
       <r>    3.3783    1.0000 </r>
       <r>    3.4053    1.0000 </r>
       <r>    3.4294    1.0000 </r>
       <r>    3.4398    1.0000 </r>
       <r>    3.4721    1.0000 </r>
       <r>    3.5097    1.0000 </r>
       <r>    3.6589    1.0000 </r>
       <r>    3.7045    1.0000 </r>
       <r>    3.7461    1.0000 </r>
       <r>    3.8701    1.0000 </r>
       <r>    5.6153    0.0000 </r>
       <r>    5.6258    0.0000 </r>
       <r>    5.6365    0.0000 </r>
       <r>    5.6502    0.0000 </r>
       <r>    5.7071    0.0000 </r>
       <r>    5.7183    0.0000 </r>
       <r>    5.7503    0.0000 </r>
       <r>    5.7597    0.0000 </r>
       <r>    7.1351    0.0000 </r>
       <r>    7.1740    0.0000 </r>
       <r>    7.1898    0.0000 </r>
       <r>    7.2402    0.0000 </r>
       <r>    7.2740    0.0000 </r>
       <r>    7.2959    0.0000 </r>
       <r>    7.3177    0.0000 </r>
       <r>    7.3522    0.0000 </r>
       <r>    7.3918    0.0000 </r>
       <r>    7.4620    0.0000 </r>
       <r>    7.4826    0.0000 </r>
       <r>    7.5171    0.0000 </r>
       <r>    7.7365    0.0000 </r>
       <r>    7.7908    0.0000 </r>
       <r>    7.8007    0.0000 </r>
       <r>    7.8092    0.0000 </r>
       <r>    7.8344    0.0000 </r>
       <r>    7.8486    0.0000 </r>
       <r>    7.8625    0.0000 </r>
       <r>    7.8828    0.0000 </r>
       <r>    7.9697    0.0000 </r>
       <r>    7.9988    0.0000 </r>
       <r>    8.0354    0.0000 </r>
       <r>    8.0827    0.0000 </r>
       <r>    8.1729    0.0000 </r>
       <r>    8.2665    0.0000 </r>
       <r>    8.3304    0.0000 </r>
       <r>    8.4009    0.0000 </r>
       <r>    8.6141    0.0000 </r>
       <r>    8.6810    0.0000 </r>
       <r>    8.7220    0.0000 </r>
       <r>    8.7383    0.0000 </r>
       <r>    8.7388    0.0000 </r>
       <r>    8.7806    0.0000 </r>
       <r>    8.8771    0.0000 </r>
       <r>    8.8883    0.0000 </r>
       <r>    9.0543    0.0000 </r>
       <r>    9.1638    0.0000 </r>
       <r>    9.3306    0.0000 </r>
       <r>    9.3669    0.0000 </r>
       <r>    9.3896    0.0000 </r>
       <r>    9.4199    0.0000 </r>
       <r>   10.0810    0.0000 </r>
       <r>   10.1904    0.0000 </r>
      </set>
      <set comment="kpoint 3">
       <r>  -40.3223    1.0000 </r>
       <r>  -40.0612    1.0000 </r>
       <r>  -39.9000    1.0000 </r>
       <r>  -39.6173    1.0000 </r>
       <r>  -19.0127    1.0000 </r>
       <r>  -18.9841    1.0000 </r>
       <r>  -18.9306    1.0000 </r>
       <r>  -18.9245    1.0000 </r>
       <r>  -18.9235    1.0000 </r>
       <r>  -18.9118    1.0000 </r>
       <r>  -18.9048    1.0000 </r>
       <r>  -18.8871    1.0000 </r>
       <r>  -18.8467    1.0000 </r>
       <r>  -18.8388    1.0000 </r>
       <r>  -18.8340    1.0000 </r>
       <r>  -18.8226    1.0000 </r>
       <r>  -18.8182    1.0000 </r>
       <r>  -18.8148    1.0000 </r>
       <r>  -18.8087    1.0000 </r>
       <r>  -18.7966    1.0000 </r>
       <r>  -18.7780    1.0000 </r>
       <r>  -18.7681    1.0000 </r>
       <r>  -18.7603    1.0000 </r>
       <r>  -18.7515    1.0000 </r>
       <r>  -18.7441    1.0000 </r>
       <r>  -18.7408    1.0000 </r>
       <r>  -18.7348    1.0000 </r>
       <r>  -18.7322    1.0000 </r>
       <r>  -18.7215    1.0000 </r>
       <r>  -18.7191    1.0000 </r>
       <r>  -18.7143    1.0000 </r>
       <r>  -18.7108    1.0000 </r>
       <r>  -18.7062    1.0000 </r>
       <r>  -18.7000    1.0000 </r>
       <r>  -18.6993    1.0000 </r>
       <r>  -18.6932    1.0000 </r>
       <r>  -18.6910    1.0000 </r>
       <r>  -18.6871    1.0000 </r>
       <r>  -18.6845    1.0000 </r>
       <r>  -18.6777    1.0000 </r>
       <r>  -18.6715    1.0000 </r>
       <r>  -18.6655    1.0000 </r>
       <r>  -18.6224    1.0000 </r>
       <r>  -18.6074    1.0000 </r>
       <r>  -18.6050    1.0000 </r>
       <r>  -18.6034    1.0000 </r>
       <r>  -18.6023    1.0000 </r>
       <r>  -18.5959    1.0000 </r>
       <r>  -18.5933    1.0000 </r>
       <r>  -18.5789    1.0000 </r>
       <r>  -18.5740    1.0000 </r>
       <r>  -18.5735    1.0000 </r>
       <r>  -18.5646    1.0000 </r>
       <r>  -18.5612    1.0000 </r>
       <r>  -18.5532    1.0000 </r>
       <r>  -18.5434    1.0000 </r>
       <r>  -18.5373    1.0000 </r>
       <r>  -18.5350    1.0000 </r>
       <r>  -18.5138    1.0000 </r>
       <r>  -18.5098    1.0000 </r>
       <r>  -18.5066    1.0000 </r>
       <r>  -18.5027    1.0000 </r>
       <r>  -18.4978    1.0000 </r>
       <r>  -18.4905    1.0000 </r>
       <r>  -18.4544    1.0000 </r>
       <r>  -18.4480    1.0000 </r>
       <r>  -18.4455    1.0000 </r>
       <r>  -18.4402    1.0000 </r>
       <r>  -18.4330    1.0000 </r>
       <r>  -18.4325    1.0000 </r>
       <r>  -18.4231    1.0000 </r>
       <r>  -18.4220    1.0000 </r>
       <r>  -18.4170    1.0000 </r>
       <r>  -18.4139    1.0000 </r>
       <r>  -18.3550    1.0000 </r>
       <r>  -18.3525    1.0000 </r>
       <r>  -18.3133    1.0000 </r>
       <r>  -18.3050    1.0000 </r>
       <r>  -18.2871    1.0000 </r>
       <r>  -18.2789    1.0000 </r>
       <r>  -18.2465    1.0000 </r>
       <r>  -18.2446    1.0000 </r>
       <r>  -18.2186    1.0000 </r>
       <r>  -18.2153    1.0000 </r>
       <r>  -13.7395    1.0000 </r>
       <r>  -13.5545    1.0000 </r>
       <r>  -13.5356    1.0000 </r>
       <r>  -13.4656    1.0000 </r>
       <r>  -12.9244    1.0000 </r>
       <r>  -12.8500    1.0000 </r>
       <r>  -12.8198    1.0000 </r>
       <r>  -12.8015    1.0000 </r>
       <r>  -12.7626    1.0000 </r>
       <r>  -12.7421    1.0000 </r>
       <r>  -12.6372    1.0000 </r>
       <r>  -12.5895    1.0000 </r>
       <r>  -12.1115    1.0000 </r>
       <r>  -12.0976    1.0000 </r>
       <r>  -12.0193    1.0000 </r>
       <r>  -11.9869    1.0000 </r>
       <r>   -9.3736    1.0000 </r>
       <r>   -9.0973    1.0000 </r>
       <r>   -8.6376    1.0000 </r>
       <r>   -8.5879    1.0000 </r>
       <r>   -8.5312    1.0000 </r>
       <r>   -8.4864    1.0000 </r>
       <r>   -8.3754    1.0000 </r>
       <r>   -8.3273    1.0000 </r>
       <r>   -8.2691    1.0000 </r>
       <r>   -8.2300    1.0000 </r>
       <r>   -8.0921    1.0000 </r>
       <r>   -8.0788    1.0000 </r>
       <r>   -8.0511    1.0000 </r>
       <r>   -8.0347    1.0000 </r>
       <r>   -7.4119    1.0000 </r>
       <r>   -7.4036    1.0000 </r>
       <r>   -6.4310    1.0000 </r>
       <r>   -6.4241    1.0000 </r>
       <r>   -6.3898    1.0000 </r>
       <r>   -6.3815    1.0000 </r>
       <r>   -5.6004    1.0000 </r>
       <r>   -5.5572    1.0000 </r>
       <r>   -5.5152    1.0000 </r>
       <r>   -5.4333    1.0000 </r>
       <r>   -5.3718    1.0000 </r>
       <r>   -5.3088    1.0000 </r>
       <r>   -5.2386    1.0000 </r>
       <r>   -5.1637    1.0000 </r>
       <r>   -5.0741    1.0000 </r>
       <r>   -5.0163    1.0000 </r>
       <r>   -3.9370    1.0000 </r>
       <r>   -3.6218    1.0000 </r>
       <r>   -1.4339    1.0000 </r>
       <r>   -1.3287    1.0000 </r>
       <r>   -1.3055    1.0000 </r>
       <r>   -1.1458    1.0000 </r>
       <r>   -0.5374    1.0000 </r>
       <r>   -0.4896    1.0000 </r>
       <r>   -0.4753    1.0000 </r>
       <r>   -0.4533    1.0000 </r>
       <r>   -0.4491    1.0000 </r>
       <r>   -0.4365    1.0000 </r>
       <r>   -0.3604    1.0000 </r>
       <r>   -0.3340    1.0000 </r>
       <r>   -0.2279    1.0000 </r>
       <r>   -0.1706    1.0000 </r>
       <r>   -0.1025    1.0000 </r>
       <r>   -0.0247    1.0000 </r>
       <r>    0.0845    1.0000 </r>
       <r>    0.2562    1.0000 </r>
       <r>    0.2986    1.0000 </r>
       <r>    0.3682    1.0000 </r>
       <r>    0.4150    1.0000 </r>
       <r>    0.5607    1.0000 </r>
       <r>    0.6267    1.0000 </r>
       <r>    0.6616    1.0000 </r>
       <r>    0.7169    1.0000 </r>
       <r>    0.7196    1.0000 </r>
       <r>    0.7502    1.0000 </r>
       <r>    0.7870    1.0000 </r>
       <r>    0.8152    1.0000 </r>
       <r>    0.9310    1.0000 </r>
       <r>    1.0130    1.0000 </r>
       <r>    1.0933    1.0000 </r>
       <r>    1.1149    1.0000 </r>
       <r>    1.1502    1.0000 </r>
       <r>    1.1922    1.0000 </r>
       <r>    1.2138    1.0000 </r>
       <r>    1.2604    1.0000 </r>
       <r>    1.3448    1.0000 </r>
       <r>    1.3827    1.0000 </r>
       <r>    1.4462    1.0000 </r>
       <r>    1.4718    1.0000 </r>
       <r>    1.5547    1.0000 </r>
       <r>    1.5966    1.0000 </r>
       <r>    1.6071    1.0000 </r>
       <r>    1.6825    1.0000 </r>
       <r>    1.7099    1.0000 </r>
       <r>    1.7781    1.0000 </r>
       <r>    1.8258    1.0000 </r>
       <r>    1.8897    1.0000 </r>
       <r>    1.9766    1.0000 </r>
       <r>    2.0607    1.0000 </r>
       <r>    2.1008    1.0000 </r>
       <r>    2.2114    1.0000 </r>
       <r>    2.2460    1.0000 </r>
       <r>    2.2972    1.0000 </r>
       <r>    2.3475    1.0000 </r>
       <r>    2.3784    1.0000 </r>
       <r>    2.4125    1.0000 </r>
       <r>    2.4392    1.0000 </r>
       <r>    2.4876    1.0000 </r>
       <r>    2.5056    1.0000 </r>
       <r>    2.5207    1.0000 </r>
       <r>    2.5270    1.0000 </r>
       <r>    2.5451    1.0000 </r>
       <r>    2.5526    1.0000 </r>
       <r>    2.5670    1.0000 </r>
       <r>    2.5937    1.0000 </r>
       <r>    2.6555    1.0000 </r>
       <r>    2.7222    1.0000 </r>
       <r>    2.7403    1.0000 </r>
       <r>    2.7676    1.0000 </r>
       <r>    2.7993    1.0000 </r>
       <r>    2.8715    1.0000 </r>
       <r>    2.8805    1.0000 </r>
       <r>    2.8952    1.0000 </r>
       <r>    2.9162    1.0000 </r>
       <r>    2.9675    1.0000 </r>
       <r>    3.0139    1.0000 </r>
       <r>    3.0387    1.0000 </r>
       <r>    3.1088    1.0000 </r>
       <r>    3.1772    1.0000 </r>
       <r>    3.2471    1.0000 </r>
       <r>    3.2731    1.0000 </r>
       <r>    3.2974    1.0000 </r>
       <r>    3.3164    1.0000 </r>
       <r>    3.3538    1.0000 </r>
       <r>    3.3834    1.0000 </r>
       <r>    3.4309    1.0000 </r>
       <r>    3.4614    1.0000 </r>
       <r>    3.5506    1.0000 </r>
       <r>    3.6313    1.0000 </r>
       <r>    3.7066    1.0000 </r>
       <r>    4.1683    1.0000 </r>
       <r>    4.1918    1.0000 </r>
       <r>    4.2323    1.0000 </r>
       <r>    4.2509    1.0000 </r>
       <r>    5.0305    0.0000 </r>
       <r>    5.0485    0.0000 </r>
       <r>    5.1983    0.0000 </r>
       <r>    5.2195    0.0000 </r>
       <r>    5.6786    0.0000 </r>
       <r>    5.6975    0.0000 </r>
       <r>    5.7984    0.0000 </r>
       <r>    5.8232    0.0000 </r>
       <r>    6.1012    0.0000 </r>
       <r>    6.1199    0.0000 </r>
       <r>    6.1425    0.0000 </r>
       <r>    6.1493    0.0000 </r>
       <r>    6.1966    0.0000 </r>
       <r>    6.2075    0.0000 </r>
       <r>    6.2399    0.0000 </r>
       <r>    6.2516    0.0000 </r>
       <r>    6.6177    0.0000 </r>
       <r>    6.7380    0.0000 </r>
       <r>    6.8329    0.0000 </r>
       <r>    6.9684    0.0000 </r>
       <r>    7.1428    0.0000 </r>
       <r>    7.2306    0.0000 </r>
       <r>    7.2705    0.0000 </r>
       <r>    7.4738    0.0000 </r>
       <r>    7.5994    0.0000 </r>
       <r>    7.7791    0.0000 </r>
       <r>    7.8473    0.0000 </r>
       <r>    7.9435    0.0000 </r>
       <r>    8.0559    0.0000 </r>
       <r>    8.2913    0.0000 </r>
       <r>    8.3378    0.0000 </r>
       <r>    8.3989    0.0000 </r>
       <r>    8.6177    0.0000 </r>
       <r>    8.6351    0.0000 </r>
       <r>    8.8413    0.0000 </r>
       <r>    8.8580    0.0000 </r>
       <r>    8.9382    0.0000 </r>
       <r>    9.0216    0.0000 </r>
       <r>    9.0291    0.0000 </r>
       <r>    9.0443    0.0000 </r>
       <r>    9.0663    0.0000 </r>
       <r>    9.0874    0.0000 </r>
       <r>    9.1291    0.0000 </r>
       <r>    9.1521    0.0000 </r>
       <r>    9.4151    0.0000 </r>
       <r>    9.4420    0.0000 </r>
       <r>    9.5343    0.0000 </r>
       <r>    9.6683    0.0000 </r>
       <r>    9.6923    0.0000 </r>
       <r>    9.6946    0.0000 </r>
       <r>    9.8673    0.0000 </r>
       <r>    9.9551    0.0000 </r>
      </set>
      <set comment="kpoint 4">
       <r>  -40.3223    1.0000 </r>
       <r>  -40.0612    1.0000 </r>
       <r>  -39.9000    1.0000 </r>
       <r>  -39.6173    1.0000 </r>
       <r>  -19.0127    1.0000 </r>
       <r>  -18.9841    1.0000 </r>
       <r>  -18.9306    1.0000 </r>
       <r>  -18.9244    1.0000 </r>
       <r>  -18.9235    1.0000 </r>
       <r>  -18.9117    1.0000 </r>
       <r>  -18.9049    1.0000 </r>
       <r>  -18.8870    1.0000 </r>
       <r>  -18.8468    1.0000 </r>
       <r>  -18.8390    1.0000 </r>
       <r>  -18.8340    1.0000 </r>
       <r>  -18.8226    1.0000 </r>
       <r>  -18.8182    1.0000 </r>
       <r>  -18.8146    1.0000 </r>
       <r>  -18.8087    1.0000 </r>
       <r>  -18.7966    1.0000 </r>
       <r>  -18.7780    1.0000 </r>
       <r>  -18.7680    1.0000 </r>
       <r>  -18.7603    1.0000 </r>
       <r>  -18.7515    1.0000 </r>
       <r>  -18.7441    1.0000 </r>
       <r>  -18.7408    1.0000 </r>
       <r>  -18.7348    1.0000 </r>
       <r>  -18.7322    1.0000 </r>
       <r>  -18.7214    1.0000 </r>
       <r>  -18.7191    1.0000 </r>
       <r>  -18.7143    1.0000 </r>
       <r>  -18.7108    1.0000 </r>
       <r>  -18.7061    1.0000 </r>
       <r>  -18.7001    1.0000 </r>
       <r>  -18.6994    1.0000 </r>
       <r>  -18.6933    1.0000 </r>
       <r>  -18.6910    1.0000 </r>
       <r>  -18.6869    1.0000 </r>
       <r>  -18.6849    1.0000 </r>
       <r>  -18.6777    1.0000 </r>
       <r>  -18.6714    1.0000 </r>
       <r>  -18.6654    1.0000 </r>
       <r>  -18.6224    1.0000 </r>
       <r>  -18.6073    1.0000 </r>
       <r>  -18.6050    1.0000 </r>
       <r>  -18.6034    1.0000 </r>
       <r>  -18.6023    1.0000 </r>
       <r>  -18.5959    1.0000 </r>
       <r>  -18.5933    1.0000 </r>
       <r>  -18.5789    1.0000 </r>
       <r>  -18.5740    1.0000 </r>
       <r>  -18.5735    1.0000 </r>
       <r>  -18.5646    1.0000 </r>
       <r>  -18.5612    1.0000 </r>
       <r>  -18.5532    1.0000 </r>
       <r>  -18.5434    1.0000 </r>
       <r>  -18.5373    1.0000 </r>
       <r>  -18.5350    1.0000 </r>
       <r>  -18.5138    1.0000 </r>
       <r>  -18.5101    1.0000 </r>
       <r>  -18.5066    1.0000 </r>
       <r>  -18.5025    1.0000 </r>
       <r>  -18.4982    1.0000 </r>
       <r>  -18.4899    1.0000 </r>
       <r>  -18.4544    1.0000 </r>
       <r>  -18.4480    1.0000 </r>
       <r>  -18.4455    1.0000 </r>
       <r>  -18.4402    1.0000 </r>
       <r>  -18.4330    1.0000 </r>
       <r>  -18.4328    1.0000 </r>
       <r>  -18.4231    1.0000 </r>
       <r>  -18.4216    1.0000 </r>
       <r>  -18.4170    1.0000 </r>
       <r>  -18.4141    1.0000 </r>
       <r>  -18.3550    1.0000 </r>
       <r>  -18.3525    1.0000 </r>
       <r>  -18.3133    1.0000 </r>
       <r>  -18.3050    1.0000 </r>
       <r>  -18.2871    1.0000 </r>
       <r>  -18.2789    1.0000 </r>
       <r>  -18.2465    1.0000 </r>
       <r>  -18.2446    1.0000 </r>
       <r>  -18.2186    1.0000 </r>
       <r>  -18.2153    1.0000 </r>
       <r>  -13.7388    1.0000 </r>
       <r>  -13.5555    1.0000 </r>
       <r>  -13.5358    1.0000 </r>
       <r>  -13.4649    1.0000 </r>
       <r>  -12.9257    1.0000 </r>
       <r>  -12.8461    1.0000 </r>
       <r>  -12.8226    1.0000 </r>
       <r>  -12.7988    1.0000 </r>
       <r>  -12.7654    1.0000 </r>
       <r>  -12.7425    1.0000 </r>
       <r>  -12.6363    1.0000 </r>
       <r>  -12.5899    1.0000 </r>
       <r>  -12.1150    1.0000 </r>
       <r>  -12.0934    1.0000 </r>
[...]
       <r>    8.7668    0.0000 </r>
       <r>    8.8038    0.0000 </r>
       <r>    8.8463    0.0000 </r>
       <r>    8.8588    0.0000 </r>
       <r>    8.8858    0.0000 </r>
       <r>    8.9048    0.0000 </r>
       <r>    8.9309    0.0000 </r>
       <r>    9.3941    0.0000 </r>
       <r>    9.6923    0.0000 </r>
       <r>    9.9849    0.0000 </r>
       <r>   10.0461    0.0000 </r>
      </set>
     </set>
    </set>
   </array>
  </eigenvalues>
  <separator name="orbital magnetization" >
   <v name="MAGDIPOLOUT">      0.00000000      0.00000000      0.00000000</v>
  </separator>
  <dos>
   <i name="efermi">      4.35849873 </i>
   <total>
    <array>
     <dimension dim="1">gridpoints</dimension>
     <dimension dim="2">spin</dimension>
     <field>energy</field>
     <field>total</field>
     <field>integrated</field>
     <set>
      <set comment="spin 1">
       <r>   -42.8545     0.0000     0.0000 </r>
       <r>   -42.6689     0.0000     0.0000 </r>
       <r>   -42.4832     0.0000     0.0000 </r>
       <r>   -42.2975     0.0000     0.0000 </r>
       <r>   -42.1118     0.0000     0.0000 </r>
       <r>   -41.9261     0.0000     0.0000 </r>
       <r>   -41.7404     0.0000     0.0000 </r>
       <r>   -41.5547     0.0000     0.0000 </r>
       <r>   -41.3690     0.0000     0.0000 </r>
       <r>   -41.1833     0.0000     0.0000 </r>
       <r>   -40.9976     0.0000     0.0000 </r>
       <r>   -40.8119     0.0000     0.0000 </r>
       <r>   -40.6262     0.0000     0.0000 </r>
       <r>   -40.4405     0.0000     0.0000 </r>
       <r>   -40.2548     0.0000     2.0000 </r>
       <r>   -40.0691     0.0000     2.0000 </r>
       <r>   -39.8834     0.0000     6.0000 </r>
       <r>   -39.6977     0.0000     6.0000 </r>
       <r>   -39.5120     0.0000     8.0000 </r>
       <r>   -39.3263     0.0000     8.0000 </r>
       <r>   -39.1406     0.0000     8.0000 </r>
       <r>   -38.9549     0.0000     8.0000 </r>
       <r>   -38.7693     0.0000     8.0000 </r>
       <r>   -38.5836     0.0000     8.0000 </r>
       <r>   -38.3979     0.0000     8.0000 </r>
       <r>   -38.2122     0.0000     8.0000 </r>
       <r>   -38.0265     0.0000     8.0000 </r>
       <r>   -37.8408     0.0000     8.0000 </r>
       <r>   -37.6551     0.0000     8.0000 </r>
       <r>   -37.4694     0.0000     8.0000 </r>
       <r>   -37.2837     0.0000     8.0000 </r>
       <r>   -37.0980     0.0000     8.0000 </r>
       <r>   -36.9123     0.0000     8.0000 </r>
       <r>   -36.7266     0.0000     8.0000 </r>
       <r>   -36.5409     0.0000     8.0000 </r>
       <r>   -36.3552     0.0000     8.0000 </r>
       <r>   -36.1695     0.0000     8.0000 </r>
       <r>   -35.9838     0.0000     8.0000 </r>
       <r>   -35.7981     0.0000     8.0000 </r>
       <r>   -35.6124     0.0000     8.0000 </r>
       <r>   -35.4267     0.0000     8.0000 </r>
       <r>   -35.2410     0.0000     8.0000 </r>
       <r>   -35.0553     0.0000     8.0000 </r>
       <r>   -34.8696     0.0000     8.0000 </r>
       <r>   -34.6840     0.0000     8.0000 </r>
       <r>   -34.4983     0.0000     8.0000 </r>
       <r>   -34.3126     0.0000     8.0000 </r>
       <r>   -34.1269     0.0000     8.0000 </r>
       <r>   -33.9412     0.0000     8.0000 </r>
       <r>   -33.7555     0.0000     8.0000 </r>
       <r>   -33.5698     0.0000     8.0000 </r>
       <r>   -33.3841     0.0000     8.0000 </r>
       <r>   -33.1984     0.0000     8.0000 </r>
       <r>   -33.0127     0.0000     8.0000 </r>
       <r>   -32.8270     0.0000     8.0000 </r>
       <r>   -32.6413     0.0000     8.0000 </r>
       <r>   -32.4556     0.0000     8.0000 </r>
       <r>   -32.2699     0.0000     8.0000 </r>
       <r>   -32.0842     0.0000     8.0000 </r>
       <r>   -31.8985     0.0000     8.0000 </r>
       <r>   -31.7128     0.0000     8.0000 </r>
       <r>   -31.5271     0.0000     8.0000 </r>
       <r>   -31.3414     0.0000     8.0000 </r>
       <r>   -31.1557     0.0000     8.0000 </r>
       <r>   -30.9700     0.0000     8.0000 </r>
       <r>   -30.7844     0.0000     8.0000 </r>
       <r>   -30.5987     0.0000     8.0000 </r>
       <r>   -30.4130     0.0000     8.0000 </r>
       <r>   -30.2273     0.0000     8.0000 </r>
       <r>   -30.0416     0.0000     8.0000 </r>
       <r>   -29.8559     0.0000     8.0000 </r>
       <r>   -29.6702     0.0000     8.0000 </r>
       <r>   -29.4845     0.0000     8.0000 </r>
       <r>   -29.2988     0.0000     8.0000 </r>
       <r>   -29.1131     0.0000     8.0000 </r>
       <r>   -28.9274     0.0000     8.0000 </r>
       <r>   -28.7417     0.0000     8.0000 </r>
       <r>   -28.5560     0.0000     8.0000 </r>
       <r>   -28.3703     0.0000     8.0000 </r>
       <r>   -28.1846     0.0000     8.0000 </r>
       <r>   -27.9989     0.0000     8.0000 </r>
       <r>   -27.8132     0.0000     8.0000 </r>
       <r>   -27.6275     0.0000     8.0000 </r>
       <r>   -27.4418     0.0000     8.0000 </r>
       <r>   -27.2561     0.0000     8.0000 </r>
       <r>   -27.0704     0.0000     8.0000 </r>
       <r>   -26.8847     0.0000     8.0000 </r>
       <r>   -26.6991     0.0000     8.0000 </r>
       <r>   -26.5134     0.0000     8.0000 </r>
       <r>   -26.3277     0.0000     8.0000 </r>
       <r>   -26.1420     0.0000     8.0000 </r>
       <r>   -25.9563     0.0000     8.0000 </r>
       <r>   -25.7706     0.0000     8.0000 </r>
       <r>   -25.5849     0.0000     8.0000 </r>
       <r>   -25.3992     0.0000     8.0000 </r>
       <r>   -25.2135     0.0000     8.0000 </r>
       <r>   -25.0278     0.0000     8.0000 </r>
       <r>   -24.8421     0.0000     8.0000 </r>
       <r>   -24.6564     0.0000     8.0000 </r>
       <r>   -24.4707     0.0000     8.0000 </r>
       <r>   -24.2850     0.0000     8.0000 </r>
       <r>   -24.0993     0.0000     8.0000 </r>
       <r>   -23.9136     0.0000     8.0000 </r>
       <r>   -23.7279     0.0000     8.0000 </r>
       <r>   -23.5422     0.0000     8.0000 </r>
       <r>   -23.3565     0.0000     8.0000 </r>
       <r>   -23.1708     0.0000     8.0000 </r>
       <r>   -22.9851     0.0000     8.0000 </r>
       <r>   -22.7994     0.0000     8.0000 </r>
       <r>   -22.6138     0.0000     8.0000 </r>
       <r>   -22.4281     0.0000     8.0000 </r>
       <r>   -22.2424     0.0000     8.0000 </r>
       <r>   -22.0567     0.0000     8.0000 </r>
       <r>   -21.8710     0.0000     8.0000 </r>
       <r>   -21.6853     0.0000     8.0000 </r>
       <r>   -21.4996     0.0000     8.0000 </r>
       <r>   -21.3139     0.0000     8.0000 </r>
       <r>   -21.1282     0.0000     8.0000 </r>
       <r>   -20.9425     0.0000     8.0000 </r>
       <r>   -20.7568     0.0000     8.0000 </r>
       <r>   -20.5711     0.0000     8.0000 </r>
       <r>   -20.3854     0.0000     8.0000 </r>
       <r>   -20.1997     0.0000     8.0000 </r>
       <r>   -20.0140     0.0000     8.0000 </r>
       <r>   -19.8283     0.0000     8.0000 </r>
       <r>   -19.6426     0.0000     8.0000 </r>
       <r>   -19.4569     0.0000     8.0000 </r>
       <r>   -19.2712     0.0000     8.0000 </r>
       <r>   -19.0855     0.0000     8.0000 </r>
       <r>   -18.8998     0.0000    22.0000 </r>
       <r>   -18.7142  8092.7137    61.5866 </r>
       <r>   -18.5285     0.0000   116.0000 </r>
       <r>   -18.3428     0.0000   152.0000 </r>
       <r>   -18.1571     0.0000   168.0000 </r>
       <r>   -17.9714     0.0000   168.0000 </r>
       <r>   -17.7857     0.0000   168.0000 </r>
       <r>   -17.6000     0.0000   168.0000 </r>
       <r>   -17.4143     0.0000   168.0000 </r>
       <r>   -17.2286     0.0000   168.0000 </r>
       <r>   -17.0429     0.0000   168.0000 </r>
       <r>   -16.8572     0.0000   168.0000 </r>
       <r>   -16.6715     0.0000   168.0000 </r>
       <r>   -16.4858     0.0000   168.0000 </r>
       <r>   -16.3001     0.0000   168.0000 </r>
       <r>   -16.1144     0.0000   168.0000 </r>
       <r>   -15.9287     0.0000   168.0000 </r>
       <r>   -15.7430     0.0000   168.0000 </r>
       <r>   -15.5573     0.0000   168.0000 </r>
       <r>   -15.3716     0.0000   168.0000 </r>
       <r>   -15.1859     0.0000   168.0000 </r>
       <r>   -15.0002     0.0000   168.0000 </r>
       <r>   -14.8145     0.0000   168.0000 </r>
       <r>   -14.6289     0.0000   168.0000 </r>
       <r>   -14.4432     0.0000   168.0000 </r>
       <r>   -14.2575     0.0000   168.0000 </r>
       <r>   -14.0718     0.0000   168.0000 </r>
       <r>   -13.8861     0.0000   168.0000 </r>
       <r>   -13.7004     0.0000   170.0000 </r>
       <r>   -13.5147     0.0000   174.0000 </r>
       <r>   -13.3290     0.0000   176.0000 </r>
       <r>   -13.1433     0.0000   176.0000 </r>
       <r>   -12.9576     0.0000   176.0000 </r>
       <r>   -12.7719    74.0636   185.4056 </r>
       <r>   -12.5862     0.0000   192.0000 </r>
       <r>   -12.4005     0.0000   192.0000 </r>
       <r>   -12.2148     0.0000   192.0000 </r>
       <r>   -12.0291     0.0000   196.0000 </r>
       <r>   -11.8434     0.0000   200.0000 </r>
       <r>   -11.6577     0.0000   200.0000 </r>
       <r>   -11.4720     0.0000   200.0000 </r>
       <r>   -11.2863     0.0000   200.0000 </r>
       <r>   -11.1006     0.0000   200.0000 </r>
       <r>   -10.9149     0.0000   200.0000 </r>
       <r>   -10.7293     0.0000   200.0000 </r>
       <r>   -10.5436     0.0000   200.0000 </r>
       <r>   -10.3579     0.0000   200.0000 </r>
       <r>   -10.1722     0.0000   200.0000 </r>
       <r>    -9.9865     0.0000   200.0000 </r>
       <r>    -9.8008     0.0000   200.0000 </r>
       <r>    -9.6151     0.0000   200.0000 </r>
       <r>    -9.4294     0.0000   200.0000 </r>
       <r>    -9.2437    10.7023   200.7257 </r>
       <r>    -9.0580    16.8566   203.6231 </r>
       <r>    -8.8723    13.3403   204.9578 </r>
       <r>    -8.6866    11.8136   207.9258 </r>
       <r>    -8.5009    26.3944   210.6806 </r>
       <r>    -8.3152     1.5940   215.9966 </r>
       <r>    -8.1295    30.3393   218.6609 </r>
       <r>    -7.9438    19.1994   223.6251 </r>
       <r>    -7.7581    22.5852   226.8127 </r>
       <r>    -7.5724    18.8370   230.4151 </r>
       <r>    -7.3867     0.0000   232.0000 </r>
       <r>    -7.2010     0.0000   232.0000 </r>
       <r>    -7.0153     0.0000   232.0000 </r>
       <r>    -6.8296     0.0000   232.0000 </r>
       <r>    -6.6440     0.0000   232.0000 </r>
       <r>    -6.4583     0.0000   232.0000 </r>
       <r>    -6.2726    16.2675   233.1983 </r>
       <r>    -6.0869    25.8723   237.7279 </r>
       <r>    -5.9012    17.1961   240.5627 </r>
       <r>    -5.7155    23.0504   245.5557 </r>
       <r>    -5.5298    18.7160   249.0071 </r>
       <r>    -5.3441    21.2021   252.9298 </r>
       <r>    -5.1584     7.0978   255.5954 </r>
       <r>    -4.9727     5.6661   256.2931 </r>
       <r>    -4.7870     8.2064   257.7320 </r>
       <r>    -4.6013    10.7238   259.4792 </r>
       <r>    -4.4156     5.9518   261.0305 </r>
       <r>    -4.2299     7.3205   262.3221 </r>
       <r>    -4.0442     4.1598   263.4027 </r>
       <r>    -3.8585     1.2689   263.8764 </r>
       <r>    -3.6728     0.0950   263.9984 </r>
       <r>    -3.4871     0.0000   264.0000 </r>
       <r>    -3.3014     0.0000   264.0000 </r>
       <r>    -3.1157     0.0000   264.0000 </r>
       <r>    -2.9300     0.0000   264.0000 </r>
       <r>    -2.7443     0.0000   264.0000 </r>
       <r>    -2.5587     0.0000   264.0000 </r>
       <r>    -2.3730     0.0000   264.0000 </r>
       <r>    -2.1873     0.0000   264.0000 </r>
       <r>    -2.0016     0.0000   264.0000 </r>
       <r>    -1.8159     0.0000   264.0000 </r>
       <r>    -1.6302     0.0000   264.0000 </r>
       <r>    -1.4445     1.1074   264.0369 </r>
       <r>    -1.2588     8.5356   264.8208 </r>
       <r>    -1.0731    12.2352   266.8542 </r>
       <r>    -0.8874    12.9543   269.4531 </r>
       <r>    -0.7017     6.0970   271.1937 </r>
       <r>    -0.5160    12.1445   273.1133 </r>
       <r>    -0.3303    23.8901   276.5827 </r>
       <r>    -0.1446    44.0226   282.8446 </r>
       <r>     0.0411    30.8282   290.1775 </r>
       <r>     0.2268    30.9054   295.9831 </r>
       <r>     0.4125    37.5654   302.7440 </r>
       <r>     0.5982    30.6410   309.5052 </r>
       <r>     0.7839    39.2290   316.6391 </r>
       <r>     0.9696    46.3297   324.0613 </r>
       <r>     1.1553    33.6567   333.5074 </r>
       <r>     1.3409    40.2768   342.6412 </r>
       <r>     1.5266    50.6883   352.4662 </r>
       <r>     1.7123    37.7391   360.9129 </r>
       <r>     1.8980    35.4133   366.4842 </r>
       <r>     2.0837    46.2047   372.9193 </r>
       <r>     2.2694    46.8614   381.7486 </r>
       <r>     2.4551    58.3882   391.4115 </r>
       <r>     2.6408    54.6854   402.0334 </r>
       <r>     2.8265    57.1142   412.4974 </r>
       <r>     3.0122    53.0439   424.7218 </r>
       <r>     3.1979    40.9109   432.4969 </r>
       <r>     3.3836    44.2425   440.3548 </r>
       <r>     3.5693    20.1281   447.0350 </r>
       <r>     3.7550    14.9076   450.8629 </r>
       <r>     3.9407    13.4151   454.2839 </r>
       <r>     4.1264     3.4896   455.8532 </r>
       <r>     4.3121     0.0000   456.0000 </r>
       <r>     4.4978     0.0000   456.0000 </r>
       <r>     4.6835     0.0000   456.0000 </r>
       <r>     4.8692     0.0000   456.0000 </r>
       <r>     5.0549     0.5326   456.0175 </r>
       <r>     5.2406     3.1347   456.3123 </r>
       <r>     5.4262     7.2592   457.2772 </r>
       <r>     5.6119     9.6202   458.9349 </r>
       <r>     5.7976    25.0749   462.0031 </r>
       <r>     5.9833    13.2726   465.3722 </r>
       <r>     6.1690    11.7182   467.6383 </r>
       <r>     6.3547    13.4271   469.9429 </r>
       <r>     6.5404    15.5594   472.6352 </r>
       <r>     6.7261    17.5191   475.7047 </r>
       <r>     6.9118    20.7924   479.2257 </r>
       <r>     7.0975    27.1360   483.6291 </r>
       <r>     7.2832    38.4473   489.6303 </r>
       <r>     7.4689    29.9063   496.1658 </r>
       <r>     7.6546    38.4036   501.3779 </r>
       <r>     7.8403    50.7526   509.5881 </r>
       <r>     8.0260    30.6832   517.1974 </r>
       <r>     8.2117    18.9289   521.4679 </r>
       <r>     8.3974    21.0919   525.1408 </r>
       <r>     8.5831    25.3531   529.4554 </r>
       <r>     8.7688    50.1001   535.1534 </r>
       <r>     8.9545    32.4160   542.7838 </r>
       <r>     9.1402    17.0067   547.0727 </r>
       <r>     9.3258    14.9777   549.9251 </r>
       <r>     9.5115    15.7071   553.0404 </r>
       <r>     9.6972     8.2140   555.3205 </r>
       <r>     9.8829     7.5503   556.5776 </r>
       <r>    10.0686    10.4862   558.4499 </r>
       <r>    10.2543     3.1424   559.9166 </r>
       <r>    10.4400     0.0000   560.0000 </r>
       <r>    10.6257     0.0000   560.0000 </r>
       <r>    10.8114     0.0000   560.0000 </r>
       <r>    10.9971     0.0000   560.0000 </r>
       <r>    11.1828     0.0000   560.0000 </r>
       <r>    11.3685     0.0000   560.0000 </r>
       <r>    11.5542     0.0000   560.0000 </r>
       <r>    11.7399     0.0000   560.0000 </r>
       <r>    11.9256     0.0000   560.0000 </r>
       <r>    12.1113     0.0000   560.0000 </r>
       <r>    12.2970     0.0000   560.0000 </r>
       <r>    12.4827     0.0000   560.0000 </r>
       <r>    12.6684     0.0000   560.0000 </r>
       <r>    12.8541     0.0000   560.0000 </r>
      </set>
     </set>
    </array>
   </total>
  </dos>
 </calculation>
 <structure name="finalpos" >
  <crystal>
   <varray name="basis" >
    <v>      11.17850000       0.00000000       0.00000000 </v>
    <v>       0.00000000       9.57460000       0.00000000 </v>
    <v>       0.00000000       0.00000000      11.18240000 </v>
   </varray>
   <i name="volume">   1196.84853820 </i>
   <varray name="rec_basis" >
    <v>       0.08945744       0.00000000       0.00000000 </v>
    <v>       0.00000000       0.10444301       0.00000000 </v>
    <v>       0.00000000       0.00000000       0.08942624 </v>
   </varray>
  </crystal>
  <varray name="positions" >
   <v>       0.37539000       0.00017000       0.43687000 </v>
   <v>       0.62539000       0.99984000       0.43687000 </v>
   <v>       0.37539000       0.00017000       0.93687000 </v>
   <v>       0.62461000       0.99984000       0.68687000 </v>
   <v>       0.12461000       0.99984000       0.18687000 </v>
   <v>       0.87539000       0.00017000       0.43687000 </v>
   <v>       0.62461000       0.99984000       0.18687000 </v>
   <v>       0.12461000       0.99984000       0.68687000 </v>
   <v>       0.37461000       0.00017000       0.68687000 </v>
   <v>       0.87539000       0.00017000       0.93687000 </v>
   <v>       0.00013000       0.29519000       0.06281000 </v>
   <v>       0.25013000       0.70481000       0.06281000 </v>
   <v>       0.24987000       0.29519000       0.31282000 </v>
   <v>       0.49987000       0.70481000       0.31282000 </v>
   <v>       0.50013000       0.29519000       0.06281000 </v>
   <v>       0.75013000       0.70481000       0.06281000 </v>
   <v>       0.74987000       0.29519000       0.31282000 </v>
   <v>       0.99987000       0.70481000       0.31282000 </v>
   <v>       0.00013000       0.29519000       0.56281000 </v>
   <v>       0.25013000       0.70481000       0.56281000 </v>
   <v>       0.24987000       0.29519000       0.81282000 </v>
   <v>       0.49987000       0.70481000       0.81282000 </v>
   <v>       0.50013000       0.29519000       0.56281000 </v>
   <v>       0.75013000       0.70481000       0.56281000 </v>
   <v>       0.74987000       0.29519000       0.81282000 </v>
   <v>       0.99987000       0.70481000       0.81282000 </v>
   <v>       0.25005000       0.32677000       0.06286000 </v>
   <v>       0.00005000       0.67323000       0.06286000 </v>
   <v>       0.49995000       0.32677000       0.31286000 </v>
   <v>       0.24995000       0.67323000       0.31286000 </v>
   <v>       0.75005000       0.32677000       0.06286000 </v>
   <v>       0.50005000       0.67323000       0.06286000 </v>
   <v>       0.99995000       0.32677000       0.31286000 </v>
   <v>       0.74995000       0.67323000       0.31286000 </v>
   <v>       0.25005000       0.32677000       0.56286000 </v>
   <v>       0.00005000       0.67323000       0.56286000 </v>
   <v>       0.49995000       0.32677000       0.81286000 </v>
   <v>       0.24995000       0.67323000       0.81286000 </v>
   <v>       0.75005000       0.32677000       0.56286000 </v>
   <v>       0.50005000       0.67323000       0.56286000 </v>
   <v>       0.99995000       0.32677000       0.81286000 </v>
   <v>       0.74995000       0.67323000       0.81286000 </v>
   <v>       0.49987000       0.07798000       0.06246000 </v>
   <v>       0.24987000       0.92202000       0.06246000 </v>
   <v>       0.25013000       0.07798000       0.31246000 </v>
   <v>       0.00013000       0.92202000       0.31246000 </v>
   <v>       0.99987000       0.07798000       0.06246000 </v>
   <v>       0.74987000       0.92202000       0.06246000 </v>
   <v>       0.75013000       0.07798000       0.31246000 </v>
   <v>       0.50013000       0.92202000       0.31246000 </v>
   <v>       0.49987000       0.07798000       0.56246000 </v>
   <v>       0.24987000       0.92202000       0.56246000 </v>
   <v>       0.25013000       0.07798000       0.81246000 </v>
   <v>       0.00013000       0.92202000       0.81246000 </v>
   <v>       0.99987000       0.07798000       0.56246000 </v>
   <v>       0.74987000       0.92202000       0.56246000 </v>
   <v>       0.75013000       0.07798000       0.81246000 </v>
   <v>       0.50013000       0.92202000       0.81246000 </v>
  </varray>
 </structure>
</modeling>
