<?xml version="1.0" encoding="ISO-8859-1"?>
<modeling>
 <generator>
  <i name="program" type="string">vasp </i>
  <i name="version" type="string">5.4.4.18Apr17-6-g9f103f2a35  </i>
  <i name="subversion" type="string">(build Jul 31 2017 11:33:29) complex            parallel </i>
  <i name="platform" type="string">LinuxIFC </i>
  <i name="date" type="string">2021 09 29 </i>
  <i name="time" type="string">19:43:00 </i>
 </generator>
 <incar>
  <i type="string" name="SYSTEM"> La2O2S</i>
  <i type="string" name="PREC">normal</i>
  <i type="int" name="NELMIN">     4</i>
  <i type="int" name="IBRION">     2</i>
  <i type="int" name="NFREE">    10</i>
  <i name="EDIFF">      0.00000100</i>
  <i name="EDIFFG">     -0.01000000</i>
  <i type="int" name="NSW">     1</i>
  <i type="int" name="ISIF">     2</i>
  <i name="ENCUT">    600.00000000</i>
  <i name="ENAUG">    900.00000000</i>
  <i type="int" name="ISMEAR">    -5</i>
  <i type="logical" name="LWAVE"> F  </i>
  <i type="logical" name="LCHARG"> F  </i>
  <v type="int" name="KPOINT_BSE">    -1     0     0     0</v>
 </incar>
 <structure name="primitive_cell" >
  <crystal>
   <varray name="basis" >
    <v>      11.17850000       0.00000000       0.00000000 </v>
    <v>       0.00000000       9.57460000       0.00000000 </v>
    <v>       0.00000000       0.00000000      11.18240000 </v>
   </varray>
   <i name="volume">   1196.84853820 </i>
   <varray name="rec_basis" >
    <v>       0.08945744       0.00000000       0.00000000 </v>
    <v>       0.00000000       0.10444301       0.00000000 </v>
    <v>       0.00000000       0.00000000       0.08942624 </v>
   </varray>
  </crystal>
  <varray name="positions" >
   <v>       0.12461000      -0.00016000       0.18687000 </v>
   <v>      -0.00013000       0.07798000       0.06246000 </v>
   <v>       0.24987000      -0.07798000       0.06246000 </v>
   <v>       0.00013000      -0.07798000       0.31246000 </v>
   <v>       0.25013000       0.07798000       0.31246000 </v>
   <v>       0.37461000       0.00017000       0.18687000 </v>
   <v>      -0.12539000       0.00017000       0.18687000 </v>
   <v>       0.00013000       0.29519000       0.06281000 </v>
   <v>       0.25013000      -0.29519000       0.06281000 </v>
   <v>      -0.00013000      -0.29519000       0.31282000 </v>
   <v>       0.24987000       0.29519000       0.31282000 </v>
   <v>       0.00005000      -0.32677000       0.06286000 </v>
   <v>       0.25005000       0.32677000       0.06286000 </v>
   <v>      -0.00005000       0.32677000       0.31286000 </v>
   <v>       0.24995000      -0.32677000       0.31286000 </v>
   <v>      -0.12461000       0.00017000      -0.06313000 </v>
   <v>      -0.12461000       0.00017000       0.43687000 </v>
   <v>       0.37539000       0.00017000       0.43687000 </v>
   <v>       0.37539000       0.00017000      -0.06313000 </v>
   <v>       0.00013000      -0.07798000      -0.18754000 </v>
   <v>      -0.25013000      -0.07798000       0.06246000 </v>
   <v>      -0.24987000       0.07798000       0.31246000 </v>
   <v>       0.25013000       0.07798000      -0.18754000 </v>
   <v>       0.49987000       0.07798000       0.06246000 </v>
   <v>      -0.00013000       0.07798000      -0.43754000 </v>
   <v>      -0.49987000      -0.07798000       0.31246000 </v>
   <v>       0.24987000      -0.07798000      -0.43754000 </v>
   <v>      -0.00013000      -0.29519000      -0.18718000 </v>
   <v>      -0.24987000      -0.29519000       0.06281000 </v>
   <v>       0.24987000       0.29519000      -0.18718000 </v>
   <v>      -0.25013000       0.29519000       0.31282000 </v>
   <v>      -0.49987000       0.29519000       0.06281000 </v>
   <v>       0.49987000      -0.29519000       0.31282000 </v>
   <v>       0.00013000       0.29519000      -0.43719000 </v>
   <v>       0.25013000      -0.29519000      -0.43719000 </v>
   <v>      -0.00005000       0.32677000      -0.18714000 </v>
   <v>       0.24995000      -0.32677000      -0.18714000 </v>
   <v>      -0.24995000       0.32677000       0.06286000 </v>
   <v>      -0.25005000      -0.32677000       0.31286000 </v>
   <v>      -0.49995000      -0.32677000       0.06286000 </v>
   <v>       0.49995000       0.32677000       0.31286000 </v>
   <v>       0.00005000      -0.32677000      -0.43714000 </v>
   <v>       0.25005000       0.32677000      -0.43714000 </v>
   <v>      -0.37539000      -0.00016000       0.18687000 </v>
   <v>       0.12461000      -0.00016000      -0.31313000 </v>
   <v>      -0.24987000       0.07798000      -0.18754000 </v>
   <v>      -0.49987000      -0.07798000      -0.18754000 </v>
   <v>      -0.25013000      -0.07798000      -0.43754000 </v>
   <v>       0.49987000       0.07798000      -0.43754000 </v>
   <v>      -0.37461000      -0.00016000      -0.06313000 </v>
   <v>      -0.12539000       0.00017000      -0.31313000 </v>
   <v>      -0.25013000       0.29519000      -0.18718000 </v>
   <v>       0.49987000      -0.29519000      -0.18718000 </v>
   <v>      -0.24987000      -0.29519000      -0.43719000 </v>
   <v>      -0.49987000       0.29519000      -0.43719000 </v>
   <v>      -0.25005000      -0.32677000      -0.18714000 </v>
   <v>       0.49995000       0.32677000      -0.18714000 </v>
   <v>      -0.24995000       0.32677000      -0.43714000 </v>
   <v>      -0.49995000      -0.32677000      -0.43714000 </v>
   <v>      -0.37539000      -0.00016000      -0.31313000 </v>
  </varray>
 </structure>
 <varray name="primitive_index" >
  <v type="int" >        1 </v>
  <v type="int" >       49 </v>
  <v type="int" >       46 </v>
  <v type="int" >       48 </v>
  <v type="int" >       47 </v>
  <v type="int" >        2 </v>
  <v type="int" >        4 </v>
  <v type="int" >       13 </v>
  <v type="int" >       14 </v>
  <v type="int" >       20 </v>
  <v type="int" >       15 </v>
  <v type="int" >       30 </v>
  <v type="int" >       29 </v>
  <v type="int" >       35 </v>
  <v type="int" >       32 </v>
  <v type="int" >        6 </v>
  <v type="int" >       10 </v>
  <v type="int" >        9 </v>
  <v type="int" >       11 </v>
  <v type="int" >       56 </v>
  <v type="int" >       50 </v>
  <v type="int" >       51 </v>
  <v type="int" >       55 </v>
  <v type="int" >       45 </v>
  <v type="int" >       57 </v>
  <v type="int" >       52 </v>
  <v type="int" >       54 </v>
  <v type="int" >       28 </v>
  <v type="int" >       18 </v>
  <v type="int" >       23 </v>
  <v type="int" >       19 </v>
  <v type="int" >       17 </v>
  <v type="int" >       16 </v>
  <v type="int" >       21 </v>
  <v type="int" >       22 </v>
  <v type="int" >       43 </v>
  <v type="int" >       40 </v>
  <v type="int" >       33 </v>
  <v type="int" >       36 </v>
  <v type="int" >       34 </v>
  <v type="int" >       31 </v>
  <v type="int" >       38 </v>
  <v type="int" >       37 </v>
  <v type="int" >        3 </v>
  <v type="int" >       12 </v>
  <v type="int" >       59 </v>
  <v type="int" >       60 </v>
  <v type="int" >       58 </v>
  <v type="int" >       53 </v>
  <v type="int" >        5 </v>
  <v type="int" >        8 </v>
  <v type="int" >       27 </v>
  <v type="int" >       24 </v>
  <v type="int" >       26 </v>
  <v type="int" >       25 </v>
  <v type="int" >       44 </v>
  <v type="int" >       39 </v>
  <v type="int" >       41 </v>
  <v type="int" >       42 </v>
  <v type="int" >        7 </v>
 </varray>
 <kpoints>
  <generation param="Gamma">
   <v type="int" name="divisions">       2        2        2 </v>
   <v name="usershift">      0.00000000       0.00000000       0.00000000 </v>
   <v name="genvec1">      0.50000000       0.00000000       0.00000000 </v>
   <v name="genvec2">      0.00000000       0.50000000       0.00000000 </v>
   <v name="genvec3">      0.00000000       0.00000000       0.50000000 </v>
   <v name="shift">      0.00000000       0.00000000       0.00000000 </v>
  </generation>
  <varray name="kpointlist" >
   <v>       0.00000000       0.00000000       0.00000000 </v>
   <v>       0.50000000       0.00000000       0.00000000 </v>
   <v>       0.00000000       0.50000000       0.00000000 </v>
   <v>       0.50000000       0.50000000       0.00000000 </v>
   <v>       0.00000000       0.00000000       0.50000000 </v>
   <v>       0.50000000       0.00000000       0.50000000 </v>
   <v>       0.00000000       0.50000000       0.50000000 </v>
   <v>       0.50000000       0.50000000       0.50000000 </v>
  </varray>
  <varray name="weights" >
   <v>       0.12500000 </v>
   <v>       0.12500000 </v>
   <v>       0.12500000 </v>
   <v>       0.12500000 </v>
   <v>       0.12500000 </v>
   <v>       0.12500000 </v>
   <v>       0.12500000 </v>
   <v>       0.12500000 </v>
  </varray>
  <varray name="tetrahedronlist"  type="int" >
   <v type="int" >        2        1        2        4        5 </v>
   <v type="int" >        2        1        3        4        5 </v>
   <v type="int" >        2        3        4        5        7 </v>
   <v type="int" >        2        2        4        5        6 </v>
   <v type="int" >        2        4        5        6        8 </v>
   <v type="int" >        2        4        5        7        8 </v>
   <v type="int" >        2        1        2        3        6 </v>
   <v type="int" >        2        2        3        4        6 </v>
   <v type="int" >        2        3        4        6        8 </v>
   <v type="int" >        2        1        3        5        6 </v>
   <v type="int" >        2        3        5        6        7 </v>
   <v type="int" >        2        3        6        7        8 </v>
   <v type="int" >        2        2        3        4        7 </v>
   <v type="int" >        2        1        2        3        7 </v>
   <v type="int" >        2        1        2        5        7 </v>
   <v type="int" >        2        2        4        7        8 </v>
   <v type="int" >        2        2        6        7        8 </v>
   <v type="int" >        2        2        5        6        7 </v>
   <v type="int" >        2        1        3        4        8 </v>
   <v type="int" >        2        1        2        4        8 </v>
   <v type="int" >        2        1        2        6        8 </v>
   <v type="int" >        2        1        3        7        8 </v>
   <v type="int" >        2        1        5        7        8 </v>
   <v type="int" >        2        1        5        6        8 </v>
  </varray>
  <i name="volumeweight">      0.02083333 </i>
 </kpoints>
 <parameters>
  <separator name="general" >
   <i type="string" name="SYSTEM">La2O2S</i>
   <i type="logical" name="LCOMPAT"> F  </i>
  </separator>
  <separator name="electronic" >
   <i type="string" name="PREC">normal</i>
   <i name="ENMAX">    600.00000000</i>
   <i name="ENAUG">    900.00000000</i>
   <i name="EDIFF">      0.00000100</i>
   <i type="int" name="IALGO">    38</i>
   <i type="int" name="IWAVPR">    11</i>
   <i type="int" name="NBANDS">   280</i>
   <i name="NELECT">    464.00000000</i>
   <i type="int" name="TURBO">     0</i>
   <i type="int" name="IRESTART">     0</i>
   <i type="int" name="NREBOOT">     0</i>
   <i type="int" name="NMIN">     0</i>
   <i name="EREF">      0.00000000</i>
   <separator name="electronic smearing" >
    <i type="int" name="ISMEAR">    -5</i>
    <i name="SIGMA">      0.20000000</i>
    <i name="KSPACING">      0.50000000</i>
    <i type="logical" name="KGAMMA"> T  </i>
   </separator>
   <separator name="electronic projectors" >
    <i type="logical" name="LREAL"> F  </i>
    <v name="ROPT">      0.00000000      0.00000000      0.00000000      0.00000000      0.00000000</v>
    <i type="int" name="LMAXPAW">  -100</i>
    <i type="int" name="LMAXMIX">     2</i>
    <i type="logical" name="NLSPLINE"> F  </i>
   </separator>
   <separator name="electronic startup" >
    <i type="int" name="ISTART">     0</i>
    <i type="int" name="ICHARG">     2</i>
    <i type="int" name="INIWAV">     1</i>
   </separator>
   <separator name="electronic spin" >
    <i type="int" name="ISPIN">     1</i>
    <i type="logical" name="LNONCOLLINEAR"> F  </i>
    <v name="MAGMOM">      1.00000000      1.00000000      1.00000000      1.00000000      1.00000000      1.00000000      1.00000000      1.00000000      1.00000000      1.00000000      1.00000000      1.00000000      1.00000000      1.00000000      1.00000000      1.00000000      1.00000000      1.00000000      1.00000000      1.00000000
      1.00000000      1.00000000      1.00000000      1.00000000      1.00000000      1.00000000      1.00000000      1.00000000      1.00000000      1.00000000      1.00000000      1.00000000      1.00000000      1.00000000      1.00000000      1.00000000      1.00000000      1.00000000      1.00000000      1.00000000
      1.00000000      1.00000000      1.00000000      1.00000000      1.00000000      1.00000000      1.00000000      1.00000000      1.00000000      1.00000000      1.00000000      1.00000000      1.00000000      1.00000000      1.00000000      1.00000000      1.00000000      1.00000000      1.00000000      1.00000000
</v>
    <i name="NUPDOWN">     -1.00000000</i>
    <i type="logical" name="LSORBIT"> F  </i>
    <v name="SAXIS">      0.00000000      0.00000000      1.00000000</v>
    <i type="logical" name="LSPIRAL"> F  </i>
    <v name="QSPIRAL">      0.00000000      0.00000000      0.00000000</v>
    <i type="logical" name="LZEROZ"> F  </i>
   </separator>
   <separator name="electronic exchange-correlation" >
    <i type="logical" name="LASPH"> F  </i>
    <i type="logical" name="LMETAGGA"> F  </i>
   </separator>
   <separator name="electronic convergence" >
    <i type="int" name="NELM">    60</i>
    <i type="int" name="NELMDL">    -5</i>
    <i type="int" name="NELMIN">     4</i>
    <i name="ENINI">    600.00000000</i>
    <separator name="electronic convergence detail" >
     <i type="logical" name="LDIAG"> T  </i>
     <i type="logical" name="LSUBROT"> F  </i>
     <i name="WEIMIN">      0.00100000</i>
     <i name="EBREAK">      0.00000000</i>
     <i name="DEPER">      0.30000000</i>
     <i type="int" name="NRMM">     4</i>
     <i name="TIME">      0.40000000</i>
    </separator>
   </separator>
   <separator name="electronic mixer" >
    <i name="AMIX">      0.40000000</i>
    <i name="BMIX">      1.00000000</i>
    <i name="AMIN">      0.10000000</i>
    <i name="AMIX_MAG">      1.60000000</i>
    <i name="BMIX_MAG">      1.00000000</i>
    <separator name="electronic mixer details" >
     <i type="int" name="IMIX">     4</i>
     <i type="logical" name="MIXFIRST"> F  </i>
     <i type="int" name="MAXMIX">   -45</i>
     <i name="WC">    100.00000000</i>
     <i type="int" name="INIMIX">     1</i>
     <i type="int" name="MIXPRE">     1</i>
     <i type="int" name="MREMOVE">     5</i>
    </separator>
   </separator>
   <separator name="electronic dipolcorrection" >
    <i type="logical" name="LDIPOL"> F  </i>
    <i type="logical" name="LMONO"> F  </i>
    <i type="int" name="IDIPOL">     0</i>
    <i name="EPSILON">      1.00000000</i>
    <v name="DIPOL">   -100.00000000   -100.00000000   -100.00000000</v>
    <i name="EFIELD">      0.00000000</i>
   </separator>
  </separator>
  <separator name="grids" >
   <i type="int" name="NGX">    70</i>
   <i type="int" name="NGY">    60</i>
   <i type="int" name="NGZ">    70</i>
   <i type="int" name="NGXF">   140</i>
   <i type="int" name="NGYF">   120</i>
   <i type="int" name="NGZF">   140</i>
   <i type="logical" name="ADDGRID"> F  </i>
  </separator>
  <separator name="ionic" >
   <i type="int" name="NSW">     1</i>
   <i type="int" name="IBRION">     2</i>
   <i type="int" name="MDALGO">     0</i>
   <i type="int" name="ISIF">     2</i>
   <i name="PSTRESS">      0.00000000</i>
   <i name="EDIFFG">     -0.01000000</i>
   <i type="int" name="NFREE">    10</i>
   <i name="POTIM">      0.50000000</i>
   <i name="SMASS">     -3.00000000</i>
   <i name="SCALEE">      1.00000000</i>
  </separator>
  <separator name="ionic md" >
   <i name="TEBEG">      0.00010000</i>
   <i name="TEEND">      0.00010000</i>
   <i type="int" name="NBLOCK">     1</i>
   <i type="int" name="KBLOCK">     1</i>
   <i type="int" name="NPACO">   256</i>
   <i name="APACO">     16.00000000</i>
  </separator>
  <separator name="symmetry" >
   <i type="int" name="ISYM">     2</i>
   <i name="SYMPREC">      0.00001000</i>
  </separator>
  <separator name="dos" >
   <i type="int" name="LORBIT">     0</i>
   <v name="RWIGS">     -1.00000000     -1.00000000     -1.00000000     -1.00000000     -1.00000000</v>
   <i type="int" name="NEDOS">   301</i>
   <i name="EMIN">     10.00000000</i>
   <i name="EMAX">    -10.00000000</i>
   <i name="EFERMI">      0.00000000</i>
  </separator>
  <separator name="writing" >
   <i type="int" name="NWRITE">     2</i>
   <i type="logical" name="LWAVE"> F  </i>
   <i type="logical" name="LDOWNSAMPLE"> F  </i>
   <i type="logical" name="LCHARG"> F  </i>
   <i type="logical" name="LPARD"> F  </i>
   <i type="logical" name="LVTOT"> F  </i>
   <i type="logical" name="LVHAR"> F  </i>
   <i type="logical" name="LELF"> F  </i>
   <i type="logical" name="LOPTICS"> F  </i>
   <v name="STM">      0.00000000      0.00000000      0.00000000      0.00000000      0.00000000      0.00000000      0.00000000</v>
  </separator>
  <separator name="performance" >
   <i type="int" name="NPAR">    28</i>
   <i type="int" name="NSIM">     4</i>
   <i type="int" name="NBLK">    -1</i>
   <i type="logical" name="LPLANE"> T  </i>
   <i type="logical" name="LSCALAPACK"> T  </i>
   <i type="logical" name="LSCAAWARE"> F  </i>
   <i type="logical" name="LSCALU"> F  </i>
   <i type="logical" name="LASYNC"> F  </i>
   <i type="logical" name="LORBITALREAL"> F  </i>
  </separator>
  <separator name="miscellaneous" >
   <i type="int" name="IDIOT">     3</i>
   <i type="int" name="ISPECIAL">     0</i>
   <i type="logical" name="LMUSIC"> F  </i>
   <v name="POMASS">      7.01000000     24.30500000    208.98000000     32.06600000     16.00000000</v>
   <v name="DARWINR">      0.00000000      0.00000000      0.00000000      0.00000000      0.00000000</v>
   <v name="DARWINV">      1.00000000      1.00000000      1.00000000      1.00000000      1.00000000</v>
   <i type="logical" name="LCORR"> T  </i>
  </separator>
  <i type="logical" name="GGA_COMPAT"> T  </i>
  <i type="logical" name="LBERRY"> F  </i>
  <i type="int" name="ICORELEVEL">     0</i>
  <i type="logical" name="LDAU"> F  </i>
  <i type="int" name="I_CONSTRAINED_M">     0</i>
  <separator name="electronic exchange-correlation" >
   <i type="string" name="GGA">--</i>
   <i type="int" name="VOSKOWN">     0</i>
   <i type="logical" name="LHFCALC"> F  </i>
   <i type="string" name="PRECFOCK"></i>
   <i type="logical" name="LSYMGRAD"> F  </i>
   <i type="logical" name="LHFONE"> F  </i>
   <i type="logical" name="LRHFCALC"> F  </i>
   <i type="logical" name="LTHOMAS"> F  </i>
   <i type="logical" name="LMODELHF"> F  </i>
   <i name="ENCUT4O">     -1.00000000</i>
   <i type="int" name="EXXOEP">     0</i>
   <i type="int" name="FOURORBIT">     0</i>
   <i name="AEXX">      0.00000000</i>
   <i name="HFALPHA">      0.00000000</i>
   <i name="MCALPHA">      0.00000000</i>
   <i name="ALDAX">      1.00000000</i>
   <i name="AGGAX">      1.00000000</i>
   <i name="ALDAC">      1.00000000</i>
   <i name="AGGAC">      1.00000000</i>
   <i type="int" name="NKREDX">     1</i>
   <i type="int" name="NKREDY">     1</i>
   <i type="int" name="NKREDZ">     1</i>
   <i type="logical" name="SHIFTRED"> F  </i>
   <i type="logical" name="ODDONLY"> F  </i>
   <i type="logical" name="EVENONLY"> F  </i>
   <i type="int" name="LMAXFOCK">     0</i>
   <i type="int" name="NMAXFOCKAE">     0</i>
   <i type="logical" name="LFOCKAEDFT"> F  </i>
   <i name="HFSCREEN">      0.00000000</i>
   <i name="HFSCREENC">      0.00000000</i>
   <i type="int" name="NBANDSGWLOW">     0</i>
  </separator>
  <separator name="vdW DFT" >
   <i type="logical" name="LUSE_VDW"> F  </i>
   <i name="Zab_VDW">     -0.84910000</i>
   <i name="PARAM1">      0.12340000</i>
   <i name="PARAM2">      1.00000000</i>
   <i name="PARAM3">      0.00000000</i>
  </separator>
  <separator name="model GW" >
   <i type="int" name="MODEL_GW">     0</i>
   <i name="MODEL_EPS0">     11.96848538</i>
   <i name="MODEL_ALPHA">      1.00000000</i>
  </separator>
  <separator name="linear response parameters" >
   <i type="logical" name="LEPSILON"> F  </i>
   <i type="logical" name="LRPA"> F  </i>
   <i type="logical" name="LNABLA"> F  </i>
   <i type="logical" name="LVEL"> F  </i>
   <i type="int" name="KINTER">     0</i>
   <i name="CSHIFT">      0.10000000</i>
   <i name="OMEGAMAX">     -1.00000000</i>
   <i name="DEG_THRESHOLD">      0.00200000</i>
   <i name="RTIME">     -0.10000000</i>
   <i name="WPLASMAI">      0.00000000</i>
   <v name="DFIELD">      0.00000000      0.00000000      0.00000000</v>
   <v name="WPLASMA">      0.00000000      0.00000000      0.00000000      0.00000000      0.00000000      0.00000000      0.00000000      0.00000000      0.00000000</v>
  </separator>
  <separator name="orbital magnetization" >
   <i type="logical" name="NUCIND"> F  </i>
   <v name="MAGPOS">      0.00000000      0.00000000      0.00000000</v>
   <i type="logical" name="LNICSALL"> T  </i>
   <i type="logical" name="ORBITALMAG"> F  </i>
   <i type="logical" name="LMAGBLOCH"> F  </i>
   <i type="logical" name="LCHIMAG"> F  </i>
   <i type="logical" name="LGAUGE"> T  </i>
   <i type="int" name="MAGATOM">     0</i>
   <v name="MAGDIPOL">      0.00000000      0.00000000      0.00000000</v>
   <v name="AVECCONST">      0.00000000      0.00000000      0.00000000</v>
  </separator>
  <separator name="response functions" >
   <i type="logical" name="LADDER"> F  </i>
   <i type="logical" name="LRPAFORCE"> F  </i>
   <i type="logical" name="LFXC"> F  </i>
   <i type="logical" name="LHARTREE"> T  </i>
   <i type="int" name="IBSE">     0</i>
   <v type="int" name="KPOINT">    -1     0     0     0</v>
   <i type="logical" name="LTCTE"> F  </i>
   <i type="logical" name="LTETE"> F  </i>
   <i type="logical" name="LTRIPLET"> F  </i>
   <i type="logical" name="LFXCEPS"> F  </i>
   <i type="logical" name="LFXHEG"> F  </i>
   <i type="int" name="NATURALO">     2</i>
   <i type="logical" name="L2ORDER"> F  </i>
   <i type="logical" name="LMP2LT"> F  </i>
   <i type="logical" name="LUSEW"> F  </i>
   <i name="ENCUTGW">     -2.00000000</i>
   <i name="ENCUTGWSOFT">     -2.00000000</i>
   <i name="ENCUTLF">     -1.00000000</i>
   <i type="int" name="LMAXMP2">    -1</i>
   <i name="SCISSOR">      0.00000000</i>
   <i type="int" name="NOMEGA">     0</i>
   <i type="int" name="NOMEGAR">     0</i>
   <i type="int" name="NBANDSGW">    -1</i>
   <i type="int" name="NBANDSO">    -1</i>
   <i type="int" name="NBANDSV">    -1</i>
   <i type="int" name="NELM">     1</i>
   <i type="int" name="NELMHF">     1</i>
   <i type="int" name="DIM">     3</i>
   <i type="int" name="ANTIRES">     0</i>
   <i name="OMEGAMAX">    -30.00000000</i>
   <i name="OMEGAMIN">    -30.00000000</i>
   <i name="OMEGATL">   -200.00000000</i>
   <i type="int" name="OMEGAGRID">   140</i>
   <i name="CSHIFT">     -0.10000000</i>
   <i type="logical" name="SELFENERGY"> F  </i>
   <i type="logical" name="LSPECTRAL"> F  </i>
   <i type="logical" name="LSPECTRALGW"> F  </i>
   <i type="logical" name="LSINGLES"> F  </i>
   <i type="logical" name="LFERMIGW"> F  </i>
   <i type="logical" name="ODDONLYGW"> F  </i>
   <i type="logical" name="EVENONLYGW"> F  </i>
   <i type="int" name="NKREDLFX">     1</i>
   <i type="int" name="NKREDLFY">     1</i>
   <i type="int" name="NKREDLFZ">     1</i>
   <i type="int" name="MAXMEM">  2800</i>
   <i type="int" name="TELESCOPE">     0</i>
   <i type="int" name="TAUPAR">     1</i>
   <i type="int" name="OMEGAPAR">    -1</i>
   <i name="LAMBDA">      1.00000000</i>
  </separator>
  <separator name="External order field" >
   <i name="OFIELD_KAPPA">      0.00000000</i>
   <v name="OFIELD_K">      0.00000000      0.00000000      0.00000000</v>
   <i name="OFIELD_Q6_NEAR">      0.00000000</i>
   <i name="OFIELD_Q6_FAR">      0.00000000</i>
   <i name="OFIELD_A">      0.00000000</i>
  </separator>
 </parameters>
 <atominfo>
  <atoms>      60 </atoms>
  <types>       5 </types>
  <array name="atoms" >
   <dimension dim="1">ion</dimension>
   <field type="string">element</field>
   <field type="int">atomtype</field>
   <set>
    <rc><c>Li</c><c>   1</c></rc>
    <rc><c>Li</c><c>   1</c></rc>
    <rc><c>Li</c><c>   1</c></rc>
    <rc><c>Li</c><c>   1</c></rc>
    <rc><c>Li</c><c>   1</c></rc>
    <rc><c>Li</c><c>   1</c></rc>
    <rc><c>Li</c><c>   1</c></rc>
    <rc><c>Li</c><c>   1</c></rc>
    <rc><c>Mg</c><c>   2</c></rc>
    <rc><c>Mg</c><c>   2</c></rc>
    <rc><c>Mg</c><c>   2</c></rc>
    <rc><c>Mg</c><c>   2</c></rc>
    <rc><c>Bi</c><c>   3</c></rc>
    <rc><c>Bi</c><c>   3</c></rc>
    <rc><c>Bi</c><c>   3</c></rc>
    <rc><c>Bi</c><c>   3</c></rc>
    <rc><c>Bi</c><c>   3</c></rc>
    <rc><c>Bi</c><c>   3</c></rc>
    <rc><c>Bi</c><c>   3</c></rc>
    <rc><c>Bi</c><c>   3</c></rc>
    <rc><c>Bi</c><c>   3</c></rc>
    <rc><c>Bi</c><c>   3</c></rc>
    <rc><c>Bi</c><c>   3</c></rc>
    <rc><c>Bi</c><c>   3</c></rc>
    <rc><c>Bi</c><c>   3</c></rc>
    <rc><c>Bi</c><c>   3</c></rc>
    <rc><c>Bi</c><c>   3</c></rc>
    <rc><c>Bi</c><c>   3</c></rc>
    <rc><c>S </c><c>   4</c></rc>
    <rc><c>S </c><c>   4</c></rc>
    <rc><c>S </c><c>   4</c></rc>
    <rc><c>S </c><c>   4</c></rc>
    <rc><c>S </c><c>   4</c></rc>
    <rc><c>S </c><c>   4</c></rc>
    <rc><c>S </c><c>   4</c></rc>
    <rc><c>S </c><c>   4</c></rc>
    <rc><c>S </c><c>   4</c></rc>
    <rc><c>S </c><c>   4</c></rc>
    <rc><c>S </c><c>   4</c></rc>
    <rc><c>S </c><c>   4</c></rc>
    <rc><c>S </c><c>   4</c></rc>
    <rc><c>S </c><c>   4</c></rc>
    <rc><c>S </c><c>   4</c></rc>
    <rc><c>S </c><c>   4</c></rc>
    <rc><c>O </c><c>   5</c></rc>
    <rc><c>O </c><c>   5</c></rc>
    <rc><c>O </c><c>   5</c></rc>
    <rc><c>O </c><c>   5</c></rc>
    <rc><c>O </c><c>   5</c></rc>
    <rc><c>O </c><c>   5</c></rc>
    <rc><c>O </c><c>   5</c></rc>
    <rc><c>O </c><c>   5</c></rc>
    <rc><c>O </c><c>   5</c></rc>
    <rc><c>O </c><c>   5</c></rc>
    <rc><c>O </c><c>   5</c></rc>
    <rc><c>O </c><c>   5</c></rc>
    <rc><c>O </c><c>   5</c></rc>
    <rc><c>O </c><c>   5</c></rc>
    <rc><c>O </c><c>   5</c></rc>
    <rc><c>O </c><c>   5</c></rc>
   </set>
  </array>
  <array name="atomtypes" >
   <dimension dim="1">type</dimension>
   <field type="int">atomspertype</field>
   <field type="string">element</field>
   <field>mass</field>
   <field>valence</field>
   <field type="string">pseudopotential</field>
   <set>
    <rc><c>   8</c><c>Li</c><c>      7.01000000</c><c>      3.00000000</c><c>  PAW_PBE Li_sv 10Sep2004               </c></rc>
    <rc><c>   4</c><c>Mg</c><c>     24.30500000</c><c>      2.00000000</c><c>  PAW_PBE Mg 13Apr2007                  </c></rc>
    <rc><c>  16</c><c>Bi</c><c>    208.98000000</c><c>     15.00000000</c><c>  PAW_PBE Bi_d 06Sep2000                </c></rc>
    <rc><c>  16</c><c>S </c><c>     32.06600000</c><c>      6.00000000</c><c>  PAW_PBE S 06Sep2000                   </c></rc>
    <rc><c>  16</c><c>O </c><c>     16.00000000</c><c>      6.00000000</c><c>  PAW_PBE O 08Apr2002                   </c></rc>
   </set>
  </array>
 </atominfo>
 <structure name="initialpos" >
  <crystal>
   <varray name="basis" >
    <v>      11.17850000       0.00000000       0.00000000 </v>
    <v>       0.00000000       9.57460000       0.00000000 </v>
    <v>       0.00000000       0.00000000      11.18240000 </v>
   </varray>
   <i name="volume">   1196.84853820 </i>
   <varray name="rec_basis" >
    <v>       0.08945744       0.00000000       0.00000000 </v>
    <v>       0.00000000       0.10444301       0.00000000 </v>
    <v>       0.00000000       0.00000000       0.08942624 </v>
   </varray>
  </crystal>
  <varray name="positions" >
   <v>       0.12461000       0.99984000       0.18687000 </v>
   <v>       0.37461000       0.00017000       0.18687000 </v>
   <v>       0.62461000       0.99984000       0.18687000 </v>
   <v>       0.87461000       0.00017000       0.18687000 </v>
   <v>       0.62539000       0.99984000       0.93687000 </v>
   <v>       0.87539000       0.00017000       0.93687000 </v>
   <v>       0.62461000       0.99984000       0.68687000 </v>
   <v>       0.87461000       0.00017000       0.68687000 </v>
   <v>       0.37539000       0.00017000       0.43687000 </v>
   <v>       0.87539000       0.00017000       0.43687000 </v>
   <v>       0.37539000       0.00017000       0.93687000 </v>
   <v>       0.12461000       0.99984000       0.68687000 </v>
   <v>       0.00013000       0.29519000       0.06281000 </v>
   <v>       0.25013000       0.70481000       0.06281000 </v>
   <v>       0.24987000       0.29519000       0.31282000 </v>
   <v>       0.49987000       0.70481000       0.31282000 </v>
   <v>       0.50013000       0.29519000       0.06281000 </v>
   <v>       0.75013000       0.70481000       0.06281000 </v>
   <v>       0.74987000       0.29519000       0.31282000 </v>
   <v>       0.99987000       0.70481000       0.31282000 </v>
   <v>       0.00013000       0.29519000       0.56281000 </v>
   <v>       0.25013000       0.70481000       0.56281000 </v>
   <v>       0.24987000       0.29519000       0.81282000 </v>
   <v>       0.49987000       0.70481000       0.81282000 </v>
   <v>       0.50013000       0.29519000       0.56281000 </v>
   <v>       0.75013000       0.70481000       0.56281000 </v>
   <v>       0.74987000       0.29519000       0.81282000 </v>
   <v>       0.99987000       0.70481000       0.81282000 </v>
   <v>       0.25005000       0.32677000       0.06286000 </v>
   <v>       0.00005000       0.67323000       0.06286000 </v>
   <v>       0.49995000       0.32677000       0.31286000 </v>
   <v>       0.24995000       0.67323000       0.31286000 </v>
   <v>       0.75005000       0.32677000       0.06286000 </v>
   <v>       0.50005000       0.67323000       0.06286000 </v>
   <v>       0.99995000       0.32677000       0.31286000 </v>
   <v>       0.74995000       0.67323000       0.31286000 </v>
   <v>       0.25005000       0.32677000       0.56286000 </v>
   <v>       0.00005000       0.67323000       0.56286000 </v>
   <v>       0.49995000       0.32677000       0.81286000 </v>
   <v>       0.24995000       0.67323000       0.81286000 </v>
   <v>       0.75005000       0.32677000       0.56286000 </v>
   <v>       0.50005000       0.67323000       0.56286000 </v>
   <v>       0.99995000       0.32677000       0.81286000 </v>
   <v>       0.74995000       0.67323000       0.81286000 </v>
   <v>       0.49987000       0.07798000       0.06246000 </v>
   <v>       0.24987000       0.92202000       0.06246000 </v>
   <v>       0.25013000       0.07798000       0.31246000 </v>
   <v>       0.00013000       0.92202000       0.31246000 </v>
   <v>       0.99987000       0.07798000       0.06246000 </v>
   <v>       0.74987000       0.92202000       0.06246000 </v>
   <v>       0.75013000       0.07798000       0.31246000 </v>
   <v>       0.50013000       0.92202000       0.31246000 </v>
   <v>       0.49987000       0.07798000       0.56246000 </v>
   <v>       0.24987000       0.92202000       0.56246000 </v>
   <v>       0.25013000       0.07798000       0.81246000 </v>
   <v>       0.00013000       0.92202000       0.81246000 </v>
   <v>       0.99987000       0.07798000       0.56246000 </v>
   <v>       0.74987000       0.92202000       0.56246000 </v>
   <v>       0.75013000       0.07798000       0.81246000 </v>
   <v>       0.50013000       0.92202000       0.81246000 </v>
  </varray>
 </structure>
 <calculation>
  <scstep>
   <time name="dav">   60.22   60.33</time>
   <time name="total">   60.31   60.42</time>
   <energy>
    <i name="alphaZ">   1067.11773629 </i>
    <i name="ewald"> -30636.49238693 </i>
    <i name="hartreedc"> -12717.17317588 </i>
    <i name="XCdc">   1321.05205318 </i>
    <i name="pawpsdc">  36729.48549953 </i>
    <i name="pawaedc"> -36149.63912807 </i>
    <i name="eentropy">      0.00000000 </i>
    <i name="bandstr">   1835.15272244 </i>
    <i name="atom">  44408.54722957 </i>
    <i name="e_fr_energy">   5858.05055012 </i>
    <i name="e_wo_entrp">   5858.05055012 </i>
    <i name="e_0_energy">   5858.05055012 </i>
   </energy>
  </scstep>
  <scstep>
   <time name="dav">   60.90   60.95</time>
   <time name="total">   60.91   60.96</time>
   <energy>
    <i name="e_fr_energy">    773.94908396 </i>
    <i name="e_wo_entrp">    773.94908396 </i>
    <i name="e_0_energy">    773.94908396 </i>
   </energy>
  </scstep>
  <scstep>
   <time name="dav">   70.48   70.54</time>
   <time name="total">   70.48   70.54</time>
   <energy>
    <i name="e_fr_energy">   -246.43824735 </i>
    <i name="e_wo_entrp">   -246.43824735 </i>
    <i name="e_0_energy">   -246.43824735 </i>
   </energy>
  </scstep>
  <scstep>
   <time name="dav">   73.13   73.23</time>
   <time name="total">   73.13   73.23</time>
   <energy>
    <i name="e_fr_energy">   -341.71555083 </i>
    <i name="e_wo_entrp">   -341.71555083 </i>
    <i name="e_0_energy">   -341.71555083 </i>
   </energy>
  </scstep>
  <scstep>
   <time name="dav">   95.86   96.02</time>
   <time name="total">   96.59   96.74</time>
   <energy>
    <i name="e_fr_energy">   -349.81458452 </i>
    <i name="e_wo_entrp">   -349.81458452 </i>
    <i name="e_0_energy">   -349.81458452 </i>
   </energy>
  </scstep>
  <scstep>
   <time name="dav">   85.84   85.86</time>
   <time name="total">   86.64   86.66</time>
   <energy>
    <i name="e_fr_energy">   -292.71531085 </i>
    <i name="e_wo_entrp">   -292.71531085 </i>
    <i name="e_0_energy">   -292.71531085 </i>
   </energy>
  </scstep>
  <scstep>
   <time name="dav">   65.77   65.78</time>
   <time name="total">   66.56   66.57</time>
   <energy>
    <i name="e_fr_energy">   -295.41487192 </i>
    <i name="e_wo_entrp">   -295.41487192 </i>
    <i name="e_0_energy">   -295.41487192 </i>
   </energy>
  </scstep>
  <scstep>
   <time name="dav">   79.15   79.15</time>
   <time name="total">   79.94   79.94</time>
   <energy>
    <i name="e_fr_energy">   -294.29396044 </i>
    <i name="e_wo_entrp">   -294.29396044 </i>
    <i name="e_0_energy">   -294.29396044 </i>
   </energy>
  </scstep>
  <scstep>
   <time name="dav">   72.79   72.79</time>
   <time name="total">   73.57   73.58</time>
   <energy>
    <i name="e_fr_energy">   -293.70653559 </i>
    <i name="e_wo_entrp">   -293.70653559 </i>
    <i name="e_0_energy">   -293.70653559 </i>
   </energy>
  </scstep>
  <scstep>
   <time name="dav">   73.09   73.08</time>
   <time name="total">   73.88   73.87</time>
   <energy>
    <i name="e_fr_energy">   -293.73082482 </i>
    <i name="e_wo_entrp">   -293.73082482 </i>
    <i name="e_0_energy">   -293.73082482 </i>
   </energy>
  </scstep>
  <scstep>
   <time name="dav">   78.63   78.63</time>
   <time name="total">   79.42   79.42</time>
   <energy>
    <i name="e_fr_energy">   -293.73908406 </i>
    <i name="e_wo_entrp">   -293.73908406 </i>
    <i name="e_0_energy">   -293.73908406 </i>
   </energy>
  </scstep>
  <scstep>
   <time name="dav">   81.28   81.30</time>
   <time name="total">   82.07   82.09</time>
   <energy>
    <i name="e_fr_energy">   -293.74206729 </i>
    <i name="e_wo_entrp">   -293.74206729 </i>
    <i name="e_0_energy">   -293.74206729 </i>
   </energy>
  </scstep>
  <scstep>
   <time name="dav">   72.46   72.47</time>
   <time name="total">   73.25   73.26</time>
   <energy>
    <i name="e_fr_energy">   -293.74337257 </i>
    <i name="e_wo_entrp">   -293.74337257 </i>
    <i name="e_0_energy">   -293.74337257 </i>
   </energy>
  </scstep>
  <scstep>
   <time name="dav">   78.31   78.31</time>
   <time name="total">   79.10   79.10</time>
   <energy>
    <i name="e_fr_energy">   -293.74352785 </i>
    <i name="e_wo_entrp">   -293.74352785 </i>
    <i name="e_0_energy">   -293.74352785 </i>
   </energy>
  </scstep>
  <scstep>
   <time name="dav">   78.54   78.54</time>
   <time name="total">   79.32   79.33</time>
   <energy>
    <i name="e_fr_energy">   -293.74356065 </i>
    <i name="e_wo_entrp">   -293.74356065 </i>
    <i name="e_0_energy">   -293.74356065 </i>
   </energy>
  </scstep>
  <scstep>
   <time name="dav">   67.00   67.01</time>
   <time name="total">   67.80   67.81</time>
   <energy>
    <i name="e_fr_energy">   -293.74357789 </i>
    <i name="e_wo_entrp">   -293.74357789 </i>
    <i name="e_0_energy">   -293.74357789 </i>
   </energy>
  </scstep>
  <scstep>
   <time name="dav">   69.93   69.95</time>
   <time name="total">   70.72   70.74</time>
   <energy>
    <i name="e_fr_energy">   -293.74358057 </i>
    <i name="e_wo_entrp">   -293.74358057 </i>
    <i name="e_0_energy">   -293.74358057 </i>
   </energy>
  </scstep>
  <scstep>
   <time name="dav">   62.75   62.77</time>
   <time name="total">   62.82   62.84</time>
   <energy>
    <i name="alphaZ">   1067.11773629 </i>
    <i name="ewald"> -30636.49238693 </i>
    <i name="hartreedc"> -12957.67838184 </i>
    <i name="XCdc">   1345.31625977 </i>
    <i name="pawpsdc">  43759.63484008 </i>
    <i name="pawaedc"> -43153.74301892 </i>
    <i name="eentropy">      0.00000000 </i>
    <i name="bandstr">  -4126.44585931 </i>
    <i name="atom">  44408.54722957 </i>
    <i name="e_fr_energy">   -293.74358129 </i>
    <i name="e_wo_entrp">   -293.74358129 </i>
    <i name="e_0_energy">   -293.74358129 </i>
   </energy>
  </scstep>
  <structure>
   <crystal>
    <varray name="basis" >
     <v>      11.17850000       0.00000000       0.00000000 </v>
     <v>       0.00000000       9.57460000       0.00000000 </v>
     <v>       0.00000000       0.00000000      11.18240000 </v>
    </varray>
    <i name="volume">   1196.84853820 </i>
    <varray name="rec_basis" >
     <v>       0.08945744       0.00000000       0.00000000 </v>
     <v>       0.00000000       0.10444301       0.00000000 </v>
     <v>       0.00000000       0.00000000       0.08942624 </v>
    </varray>
   </crystal>
   <varray name="positions" >
    <v>       0.12461000       0.99984000       0.18687000 </v>
    <v>       0.37461000       0.00017000       0.18687000 </v>
    <v>       0.62461000       0.99984000       0.18687000 </v>
    <v>       0.87461000       0.00017000       0.18687000 </v>
    <v>       0.62539000       0.99984000       0.93687000 </v>
    <v>       0.87539000       0.00017000       0.93687000 </v>
    <v>       0.62461000       0.99984000       0.68687000 </v>
    <v>       0.87461000       0.00017000       0.68687000 </v>
    <v>       0.37539000       0.00017000       0.43687000 </v>
    <v>       0.87539000       0.00017000       0.43687000 </v>
    <v>       0.37539000       0.00017000       0.93687000 </v>
    <v>       0.12461000       0.99984000       0.68687000 </v>
    <v>       0.00013000       0.29519000       0.06281000 </v>
    <v>       0.25013000       0.70481000       0.06281000 </v>
    <v>       0.24987000       0.29519000       0.31282000 </v>
    <v>       0.49987000       0.70481000       0.31282000 </v>
    <v>       0.50013000       0.29519000       0.06281000 </v>
    <v>       0.75013000       0.70481000       0.06281000 </v>
    <v>       0.74987000       0.29519000       0.31282000 </v>
    <v>       0.99987000       0.70481000       0.31282000 </v>
    <v>       0.00013000       0.29519000       0.56281000 </v>
    <v>       0.25013000       0.70481000       0.56281000 </v>
    <v>       0.24987000       0.29519000       0.81282000 </v>
    <v>       0.49987000       0.70481000       0.81282000 </v>
    <v>       0.50013000       0.29519000       0.56281000 </v>
    <v>       0.75013000       0.70481000       0.56281000 </v>
    <v>       0.74987000       0.29519000       0.81282000 </v>
    <v>       0.99987000       0.70481000       0.81282000 </v>
    <v>       0.25005000       0.32677000       0.06286000 </v>
    <v>       0.00005000       0.67323000       0.06286000 </v>
    <v>       0.49995000       0.32677000       0.31286000 </v>
    <v>       0.24995000       0.67323000       0.31286000 </v>
    <v>       0.75005000       0.32677000       0.06286000 </v>
    <v>       0.50005000       0.67323000       0.06286000 </v>
    <v>       0.99995000       0.32677000       0.31286000 </v>
    <v>       0.74995000       0.67323000       0.31286000 </v>
    <v>       0.25005000       0.32677000       0.56286000 </v>
    <v>       0.00005000       0.67323000       0.56286000 </v>
    <v>       0.49995000       0.32677000       0.81286000 </v>
    <v>       0.24995000       0.67323000       0.81286000 </v>
    <v>       0.75005000       0.32677000       0.56286000 </v>
    <v>       0.50005000       0.67323000       0.56286000 </v>
    <v>       0.99995000       0.32677000       0.81286000 </v>
    <v>       0.74995000       0.67323000       0.81286000 </v>
    <v>       0.49987000       0.07798000       0.06246000 </v>
    <v>       0.24987000       0.92202000       0.06246000 </v>
    <v>       0.25013000       0.07798000       0.31246000 </v>
    <v>       0.00013000       0.92202000       0.31246000 </v>
    <v>       0.99987000       0.07798000       0.06246000 </v>
    <v>       0.74987000       0.92202000       0.06246000 </v>
    <v>       0.75013000       0.07798000       0.31246000 </v>
    <v>       0.50013000       0.92202000       0.31246000 </v>
    <v>       0.49987000       0.07798000       0.56246000 </v>
    <v>       0.24987000       0.92202000       0.56246000 </v>
    <v>       0.25013000       0.07798000       0.81246000 </v>
    <v>       0.00013000       0.92202000       0.81246000 </v>
    <v>       0.99987000       0.07798000       0.56246000 </v>
    <v>       0.74987000       0.92202000       0.56246000 </v>
    <v>       0.75013000       0.07798000       0.81246000 </v>
    <v>       0.50013000       0.92202000       0.81246000 </v>
   </varray>
  </structure>
  <varray name="forces" >
   <v>      -0.07716974       0.06920832      -0.07634865 </v>
   <v>      -0.16313675      -0.06261052       0.17357251 </v>
   <v>       0.09947864      -0.06575951       0.43383185 </v>
   <v>       0.15993073       0.06295779      -0.29492404 </v>
   <v>       0.31439804      -0.06151056      -0.15191546 </v>
   <v>       0.40981362       0.06761991       0.09404840 </v>
   <v>      -0.41021155       0.06920908      -0.41546872 </v>
   <v>      -0.31161723      -0.06059488       0.31650076 </v>
   <v>       0.14981604       0.11354326       0.82576763 </v>
   <v>      -0.20790940      -0.12017902      -0.16687765 </v>
   <v>      -0.84789189      -0.11778639      -0.78460636 </v>
   <v>       0.85109359      -0.11148881       0.21127175 </v>
   <v>       0.06950779      -0.98838932      -0.10967160 </v>
   <v>      -0.28868193      -0.00055900      -0.03053269 </v>
   <v>      -0.17653859       0.00124509       0.01883663 </v>
   <v>       0.19927840       0.00122502       0.11814651 </v>
   <v>       0.09060600       1.04927595       0.08645995 </v>
   <v>       0.10610586      -0.02418074      -0.01271221 </v>
   <v>      -0.17887819      -0.02098977       0.01546076 </v>
   <v>       0.18273097       0.00128941      -0.08677090 </v>
   <v>       0.08948293       0.99921764      -0.13366099 </v>
   <v>       0.10829244       0.09732791      -0.02109682 </v>
   <v>       0.00794076      -0.10812946       0.01324186 </v>
   <v>      -0.01060524      -0.02406682      -0.27685622 </v>
   <v>       0.06509056      -1.03127455       0.05320097 </v>
   <v>      -0.28844185      -0.00169026      -0.04172070 </v>
   <v>       0.01771789       0.03793394       0.02265892 </v>
   <v>       0.00940977      -0.00463806       0.31168766 </v>
   <v>       0.23825918       0.12817676      -0.02368445 </v>
   <v>      -0.02534739      -0.17171664       0.01235056 </v>
   <v>      -0.05154910       0.14756694      -0.16530358 </v>
   <v>       0.05885775      -0.14935548       0.01219194 </v>
   <v>      -0.18810816       0.19273841      -0.01131381 </v>
   <v>      -0.03090995      -0.15599581      -0.04868873 </v>
   <v>      -0.06300711       0.14615377       0.20488253 </v>
   <v>       0.05864399      -0.13953044       0.02276547 </v>
   <v>      -0.18912936       0.09454791      -0.00871256 </v>
   <v>      -0.02668225      -0.10672286       0.01437910 </v>
   <v>      -0.00645969       0.12279500       0.25649140 </v>
   <v>       0.00162694      -0.08733529       0.01906430 </v>
   <v>       0.24169556       0.12698530      -0.02370276 </v>
   <v>      -0.02688217      -0.12298513      -0.04437219 </v>
   <v>       0.01099529       0.12678684      -0.23010927 </v>
   <v>      -0.00314939      -0.19363919       0.00922363 </v>
   <v>      -0.46334981      -0.78451527      -0.48257832 </v>
   <v>       1.25787852      -0.00720700       0.11284274 </v>
   <v>       1.09408560       0.04984614      -0.16299580 </v>
   <v>      -1.11513607      -0.05302039      -0.00347527 </v>
   <v>      -0.61125803       0.79317283       0.60665759 </v>
   <v>      -0.14361403       0.02103604      -0.00624305 </v>
   <v>       1.08813519       0.04997716      -0.13084399 </v>
   <v>      -1.08193745      -0.04870535      -0.29372090 </v>
   <v>      -0.46750060       0.94544960      -0.47518474 </v>
   <v>      -0.13109536      -0.28818168       0.01998947 </v>
   <v>      -0.01523945       0.28400541      -0.00998269 </v>
   <v>      -0.13743480      -0.00702145      -1.24371035 </v>
   <v>      -0.62491078      -0.63985508       0.62121854 </v>
   <v>       1.25591948      -0.00585687       0.11868933 </v>
   <v>      -0.00529810      -0.02809866       0.00260467 </v>
   <v>       0.13228986      -0.00570115       1.23974805 </v>
  </varray>
  <varray name="stress" >
   <v>     -10.73560318      -0.23548204      -0.20193417 </v>
   <v>      -0.23548212     -13.84695821       0.05691458 </v>
   <v>      -0.20193414       0.05691449      -8.62276591 </v>
  </varray>
  <energy>
   <i name="e_fr_energy">   -307.29438610 </i>
   <i name="e_wo_entrp">   -307.29438610 </i>
   <i name="e_0_energy">      0.00000000 </i>
  </energy>
  <time name="totalsc"> 1445.42 1446.04</time>
  <eigenvalues>
   <array>
    <dimension dim="1">band</dimension>
    <dimension dim="2">kpoint</dimension>
    <dimension dim="3">spin</dimension>
    <field>eigene</field>
    <field>occ</field>
    <set>
     <set comment="spin 1">
      <set comment="kpoint 1">
       <r>  -40.0710    1.0000 </r>
       <r>  -40.0642    1.0000 </r>
       <r>  -40.0348    1.0000 </r>
       <r>  -39.9482    1.0000 </r>
       <r>  -39.7019    1.0000 </r>
       <r>  -39.6271    1.0000 </r>
       <r>  -39.5939    1.0000 </r>
       <r>  -39.5808    1.0000 </r>
       <r>  -18.8613    1.0000 </r>
       <r>  -18.8574    1.0000 </r>
       <r>  -18.7973    1.0000 </r>
       <r>  -18.7922    1.0000 </r>
       <r>  -18.7907    1.0000 </r>
       <r>  -18.7844    1.0000 </r>
       <r>  -18.6956    1.0000 </r>
       <r>  -18.6882    1.0000 </r>
       <r>  -18.6864    1.0000 </r>
       <r>  -18.6858    1.0000 </r>
       <r>  -18.6794    1.0000 </r>
       <r>  -18.6732    1.0000 </r>
       <r>  -18.6690    1.0000 </r>
       <r>  -18.6689    1.0000 </r>
       <r>  -18.6670    1.0000 </r>
       <r>  -18.6662    1.0000 </r>
       <r>  -18.6645    1.0000 </r>
       <r>  -18.6631    1.0000 </r>
       <r>  -18.6595    1.0000 </r>
       <r>  -18.6587    1.0000 </r>
       <r>  -18.6574    1.0000 </r>
       <r>  -18.6556    1.0000 </r>
       <r>  -18.6552    1.0000 </r>
       <r>  -18.6543    1.0000 </r>
       <r>  -18.6511    1.0000 </r>
       <r>  -18.6504    1.0000 </r>
       <r>  -18.6497    1.0000 </r>
       <r>  -18.6478    1.0000 </r>
       <r>  -18.6477    1.0000 </r>
       <r>  -18.6459    1.0000 </r>
       <r>  -18.6447    1.0000 </r>
       <r>  -18.6445    1.0000 </r>
       <r>  -18.6412    1.0000 </r>
       <r>  -18.6407    1.0000 </r>
       <r>  -18.6391    1.0000 </r>
       <r>  -18.6360    1.0000 </r>
       <r>  -18.6351    1.0000 </r>
       <r>  -18.6348    1.0000 </r>
       <r>  -18.6343    1.0000 </r>
       <r>  -18.6340    1.0000 </r>
       <r>  -18.6319    1.0000 </r>
       <r>  -18.6291    1.0000 </r>
       <r>  -18.6285    1.0000 </r>
       <r>  -18.6209    1.0000 </r>
       <r>  -18.6186    1.0000 </r>
       <r>  -18.6143    1.0000 </r>
       <r>  -18.5194    1.0000 </r>
       <r>  -18.5145    1.0000 </r>
       <r>  -18.5094    1.0000 </r>
       <r>  -18.5072    1.0000 </r>
       <r>  -18.5062    1.0000 </r>
       <r>  -18.5042    1.0000 </r>
       <r>  -18.5011    1.0000 </r>
       <r>  -18.5008    1.0000 </r>
       <r>  -18.4960    1.0000 </r>
       <r>  -18.4955    1.0000 </r>
       <r>  -18.4949    1.0000 </r>
       <r>  -18.4936    1.0000 </r>
       <r>  -18.4926    1.0000 </r>
       <r>  -18.4924    1.0000 </r>
       <r>  -18.4919    1.0000 </r>
       <r>  -18.4901    1.0000 </r>
       <r>  -18.4895    1.0000 </r>
       <r>  -18.4887    1.0000 </r>
       <r>  -18.4887    1.0000 </r>
       <r>  -18.4860    1.0000 </r>
       <r>  -18.4793    1.0000 </r>
       <r>  -18.4783    1.0000 </r>
       <r>  -18.4761    1.0000 </r>
       <r>  -18.4699    1.0000 </r>
       <r>  -18.4648    1.0000 </r>
       <r>  -18.4638    1.0000 </r>
       <r>  -18.4594    1.0000 </r>
       <r>  -18.4569    1.0000 </r>
       <r>  -18.3896    1.0000 </r>
       <r>  -18.3850    1.0000 </r>
       <r>  -18.2739    1.0000 </r>
       <r>  -18.2713    1.0000 </r>
       <r>  -18.2613    1.0000 </r>
       <r>  -18.2485    1.0000 </r>
       <r>  -13.4427    1.0000 </r>
       <r>  -13.4269    1.0000 </r>
       <r>  -12.8754    1.0000 </r>
       <r>  -12.8140    1.0000 </r>
       <r>  -12.7846    1.0000 </r>
       <r>  -12.7454    1.0000 </r>
       <r>  -12.7306    1.0000 </r>
       <r>  -12.7040    1.0000 </r>
       <r>  -12.7013    1.0000 </r>
       <r>  -12.6840    1.0000 </r>
       <r>  -12.6580    1.0000 </r>
       <r>  -12.6456    1.0000 </r>
       <r>  -12.6307    1.0000 </r>
       <r>  -12.6192    1.0000 </r>
       <r>  -12.0537    1.0000 </r>
       <r>  -12.0385    1.0000 </r>
       <r>   -9.3266    1.0000 </r>
       <r>   -9.0297    1.0000 </r>
       <r>   -8.5597    1.0000 </r>
       <r>   -8.4969    1.0000 </r>
       <r>   -8.4940    1.0000 </r>
       <r>   -8.4333    1.0000 </r>
       <r>   -8.3337    1.0000 </r>
       <r>   -8.2696    1.0000 </r>
       <r>   -8.2673    1.0000 </r>
       <r>   -8.2058    1.0000 </r>
       <r>   -8.0490    1.0000 </r>
       <r>   -8.0390    1.0000 </r>
       <r>   -8.0371    1.0000 </r>
       <r>   -8.0271    1.0000 </r>
       <r>   -7.3740    1.0000 </r>
       <r>   -7.3673    1.0000 </r>
       <r>   -6.3798    1.0000 </r>
       <r>   -6.3691    1.0000 </r>
       <r>   -6.3476    1.0000 </r>
       <r>   -6.3410    1.0000 </r>
       <r>   -5.4763    1.0000 </r>
       <r>   -5.4668    1.0000 </r>
       <r>   -5.4214    1.0000 </r>
       <r>   -5.3488    1.0000 </r>
       <r>   -5.3482    1.0000 </r>
       <r>   -5.2883    1.0000 </r>
       <r>   -5.2513    1.0000 </r>
       <r>   -5.1802    1.0000 </r>
       <r>   -5.1772    1.0000 </r>
       <r>   -5.0337    1.0000 </r>
       <r>   -3.8268    1.0000 </r>
       <r>   -3.6753    1.0000 </r>
       <r>   -1.4672    1.0000 </r>
       <r>   -1.2994    1.0000 </r>
       <r>   -1.1176    1.0000 </r>
       <r>   -0.9899    1.0000 </r>
       <r>   -0.5891    1.0000 </r>
       <r>   -0.5253    1.0000 </r>
       <r>   -0.4958    1.0000 </r>
       <r>   -0.4509    1.0000 </r>
       <r>   -0.2032    1.0000 </r>
       <r>   -0.1878    1.0000 </r>
       <r>   -0.1668    1.0000 </r>
       <r>   -0.1342    1.0000 </r>
       <r>    0.1279    1.0000 </r>
       <r>    0.2201    1.0000 </r>
       <r>    0.2795    1.0000 </r>
       <r>    0.4149    1.0000 </r>
       <r>    0.5533    1.0000 </r>
       <r>    0.5805    1.0000 </r>
       <r>    0.6230    1.0000 </r>
       <r>    0.6508    1.0000 </r>
       <r>    0.6885    1.0000 </r>
       <r>    0.7358    1.0000 </r>
       <r>    0.7417    1.0000 </r>
       <r>    0.7530    1.0000 </r>
       <r>    0.7830    1.0000 </r>
       <r>    0.8297    1.0000 </r>
       <r>    0.8956    1.0000 </r>
       <r>    0.9125    1.0000 </r>
       <r>    0.9588    1.0000 </r>
       <r>    0.9701    1.0000 </r>
       <r>    1.0499    1.0000 </r>
       <r>    1.0780    1.0000 </r>
       <r>    1.1565    1.0000 </r>
       <r>    1.1716    1.0000 </r>
       <r>    1.2190    1.0000 </r>
       <r>    1.2519    1.0000 </r>
       <r>    1.3218    1.0000 </r>
       <r>    1.3542    1.0000 </r>
       <r>    1.4117    1.0000 </r>
       <r>    1.4504    1.0000 </r>
       <r>    1.5094    1.0000 </r>
       <r>    1.5385    1.0000 </r>
       <r>    1.5787    1.0000 </r>
       <r>    1.6031    1.0000 </r>
       <r>    1.6346    1.0000 </r>
       <r>    1.6941    1.0000 </r>
       <r>    1.7374    1.0000 </r>
       <r>    1.7667    1.0000 </r>
       <r>    1.8447    1.0000 </r>
       <r>    1.8927    1.0000 </r>
       <r>    1.9320    1.0000 </r>
       <r>    1.9759    1.0000 </r>
       <r>    2.0264    1.0000 </r>
       <r>    2.1140    1.0000 </r>
       <r>    2.2249    1.0000 </r>
       <r>    2.2870    1.0000 </r>
       <r>    2.3135    1.0000 </r>
       <r>    2.3660    1.0000 </r>
       <r>    2.4814    1.0000 </r>
       <r>    2.5575    1.0000 </r>
       <r>    2.5623    1.0000 </r>
       <r>    2.5847    1.0000 </r>
       <r>    2.5893    1.0000 </r>
       <r>    2.6052    1.0000 </r>
       <r>    2.6231    1.0000 </r>
       <r>    2.6635    1.0000 </r>
       <r>    2.6914    1.0000 </r>
       <r>    2.7090    1.0000 </r>
       <r>    2.7679    1.0000 </r>
       <r>    2.7948    1.0000 </r>
       <r>    2.8250    1.0000 </r>
       <r>    2.8301    1.0000 </r>
       <r>    2.8470    1.0000 </r>
       <r>    2.8913    1.0000 </r>
       <r>    2.9400    1.0000 </r>
       <r>    2.9635    1.0000 </r>
       <r>    2.9797    1.0000 </r>
       <r>    2.9901    1.0000 </r>
       <r>    3.0438    1.0000 </r>
       <r>    3.0542    1.0000 </r>
       <r>    3.0628    1.0000 </r>
       <r>    3.1095    1.0000 </r>
       <r>    3.1328    1.0000 </r>
       <r>    3.1487    1.0000 </r>
       <r>    3.1769    1.0000 </r>
       <r>    3.1953    1.0000 </r>
       <r>    3.2365    1.0000 </r>
       <r>    3.3488    1.0000 </r>
       <r>    3.3635    1.0000 </r>
       <r>    3.4034    1.0000 </r>
       <r>    3.4913    1.0000 </r>
       <r>    3.6256    1.0000 </r>
       <r>    4.1573    1.0000 </r>
       <r>    4.1752    1.0000 </r>
       <r>    4.2018    1.0000 </r>
       <r>    4.2205    1.0000 </r>
       <r>    5.0167    0.0000 </r>
       <r>    5.0348    0.0000 </r>
       <r>    5.1667    0.0000 </r>
       <r>    5.1908    0.0000 </r>
       <r>    5.7332    0.0000 </r>
       <r>    5.7497    0.0000 </r>
       <r>    5.8253    0.0000 </r>
       <r>    5.8470    0.0000 </r>
       <r>    6.0764    0.0000 </r>
       <r>    6.1036    0.0000 </r>
       <r>    6.1091    0.0000 </r>
       <r>    6.1319    0.0000 </r>
       <r>    6.2085    0.0000 </r>
       <r>    6.2282    0.0000 </r>
       <r>    6.2308    0.0000 </r>
       <r>    6.2496    0.0000 </r>
       <r>    7.0776    0.0000 </r>
       <r>    7.1581    0.0000 </r>
       <r>    7.3378    0.0000 </r>
       <r>    7.3553    0.0000 </r>
       <r>    7.6811    0.0000 </r>
       <r>    7.8938    0.0000 </r>
       <r>    7.9216    0.0000 </r>
       <r>    7.9237    0.0000 </r>
       <r>    7.9681    0.0000 </r>
       <r>    8.0038    0.0000 </r>
       <r>    8.0665    0.0000 </r>
       <r>    8.2392    0.0000 </r>
       <r>    8.3278    0.0000 </r>
       <r>    8.6206    0.0000 </r>
       <r>    8.6451    0.0000 </r>
       <r>    8.7244    0.0000 </r>
       <r>    8.7643    0.0000 </r>
       <r>    8.8723    0.0000 </r>
       <r>    8.9534    0.0000 </r>
       <r>    9.0065    0.0000 </r>
       <r>    9.0348    0.0000 </r>
       <r>    9.0353    0.0000 </r>
       <r>    9.0477    0.0000 </r>
       <r>    9.1082    0.0000 </r>
       <r>    9.1422    0.0000 </r>
       <r>    9.1576    0.0000 </r>
       <r>    9.1819    0.0000 </r>
       <r>    9.2356    0.0000 </r>
       <r>    9.4512    0.0000 </r>
       <r>    9.4574    0.0000 </r>
       <r>    9.5039    0.0000 </r>
       <r>    9.5507    0.0000 </r>
      </set>
      <set comment="kpoint 2">
       <r>  -40.0710    1.0000 </r>
       <r>  -40.0642    1.0000 </r>
       <r>  -40.0348    1.0000 </r>
       <r>  -39.9482    1.0000 </r>
       <r>  -39.7019    1.0000 </r>
       <r>  -39.6271    1.0000 </r>
       <r>  -39.5939    1.0000 </r>
       <r>  -39.5808    1.0000 </r>
       <r>  -18.8612    1.0000 </r>
       <r>  -18.8575    1.0000 </r>
       <r>  -18.7968    1.0000 </r>
       <r>  -18.7926    1.0000 </r>
       <r>  -18.7898    1.0000 </r>
       <r>  -18.7854    1.0000 </r>
       <r>  -18.6882    1.0000 </r>
       <r>  -18.6870    1.0000 </r>
       <r>  -18.6864    1.0000 </r>
       <r>  -18.6841    1.0000 </r>
       <r>  -18.6794    1.0000 </r>
       <r>  -18.6787    1.0000 </r>
       <r>  -18.6758    1.0000 </r>
       <r>  -18.6689    1.0000 </r>
       <r>  -18.6680    1.0000 </r>
       <r>  -18.6664    1.0000 </r>
       <r>  -18.6641    1.0000 </r>
       <r>  -18.6632    1.0000 </r>
       <r>  -18.6626    1.0000 </r>
       <r>  -18.6620    1.0000 </r>
       <r>  -18.6602    1.0000 </r>
       <r>  -18.6577    1.0000 </r>
       <r>  -18.6552    1.0000 </r>
       <r>  -18.6548    1.0000 </r>
       <r>  -18.6539    1.0000 </r>
       <r>  -18.6495    1.0000 </r>
       <r>  -18.6488    1.0000 </r>
       <r>  -18.6451    1.0000 </r>
       <r>  -18.6445    1.0000 </r>
       <r>  -18.6429    1.0000 </r>
       <r>  -18.6410    1.0000 </r>
       <r>  -18.6408    1.0000 </r>
       <r>  -18.6390    1.0000 </r>
       <r>  -18.6380    1.0000 </r>
       <r>  -18.6373    1.0000 </r>
       <r>  -18.6368    1.0000 </r>
       <r>  -18.6354    1.0000 </r>
       <r>  -18.6340    1.0000 </r>
       <r>  -18.6332    1.0000 </r>
       <r>  -18.6327    1.0000 </r>
       <r>  -18.6320    1.0000 </r>
       <r>  -18.6299    1.0000 </r>
       <r>  -18.6293    1.0000 </r>
       <r>  -18.6258    1.0000 </r>
       <r>  -18.6187    1.0000 </r>
       <r>  -18.6170    1.0000 </r>
       <r>  -18.5192    1.0000 </r>
       <r>  -18.5144    1.0000 </r>
       <r>  -18.5106    1.0000 </r>
       <r>  -18.5067    1.0000 </r>
       <r>  -18.5055    1.0000 </r>
       <r>  -18.5041    1.0000 </r>
       <r>  -18.5015    1.0000 </r>
       <r>  -18.5007    1.0000 </r>
       <r>  -18.4958    1.0000 </r>
       <r>  -18.4956    1.0000 </r>
       <r>  -18.4953    1.0000 </r>
       <r>  -18.4948    1.0000 </r>
       <r>  -18.4927    1.0000 </r>
       <r>  -18.4921    1.0000 </r>
       <r>  -18.4906    1.0000 </r>
       <r>  -18.4899    1.0000 </r>
       <r>  -18.4895    1.0000 </r>
       <r>  -18.4887    1.0000 </r>
       <r>  -18.4884    1.0000 </r>
       <r>  -18.4866    1.0000 </r>
       <r>  -18.4793    1.0000 </r>
       <r>  -18.4783    1.0000 </r>
       <r>  -18.4759    1.0000 </r>
       <r>  -18.4701    1.0000 </r>
       <r>  -18.4648    1.0000 </r>
       <r>  -18.4631    1.0000 </r>
       <r>  -18.4594    1.0000 </r>
       <r>  -18.4575    1.0000 </r>
       <r>  -18.3895    1.0000 </r>
       <r>  -18.3851    1.0000 </r>
       <r>  -18.2739    1.0000 </r>
       <r>  -18.2713    1.0000 </r>
       <r>  -18.2613    1.0000 </r>
       <r>  -18.2485    1.0000 </r>
       <r>  -13.4416    1.0000 </r>
       <r>  -13.4276    1.0000 </r>
       <r>  -12.8552    1.0000 </r>
       <r>  -12.8357    1.0000 </r>
       <r>  -12.7835    1.0000 </r>
       <r>  -12.7731    1.0000 </r>
       <r>  -12.7142    1.0000 </r>
       <r>  -12.7059    1.0000 </r>
       <r>  -12.6863    1.0000 </r>
       <r>  -12.6747    1.0000 </r>
       <r>  -12.6581    1.0000 </r>
       <r>  -12.6523    1.0000 </r>
       <r>  -12.6322    1.0000 </r>
       <r>  -12.6221    1.0000 </r>
       <r>  -12.0537    1.0000 </r>
       <r>  -12.0385    1.0000 </r>
       <r>   -9.1149    1.0000 </r>
       <r>   -9.1136    1.0000 </r>
       <r>   -8.8373    1.0000 </r>
       <r>   -8.8367    1.0000 </r>
       <r>   -8.3341    1.0000 </r>
       <r>   -8.3332    1.0000 </r>
       <r>   -8.3288    1.0000 </r>
       <r>   -8.3287    1.0000 </r>
       <r>   -8.1458    1.0000 </r>
       <r>   -8.1448    1.0000 </r>
       <r>   -8.1411    1.0000 </r>
       <r>   -8.1405    1.0000 </r>
       <r>   -7.7059    1.0000 </r>
       <r>   -7.7055    1.0000 </r>
       <r>   -7.5930    1.0000 </r>
       <r>   -7.5925    1.0000 </r>
       <r>   -5.9433    1.0000 </r>
       <r>   -5.9414    1.0000 </r>
       <r>   -5.9013    1.0000 </r>
       <r>   -5.8983    1.0000 </r>
       <r>   -5.7940    1.0000 </r>
       <r>   -5.7915    1.0000 </r>
       <r>   -5.7496    1.0000 </r>
       <r>   -5.7483    1.0000 </r>
       <r>   -5.6565    1.0000 </r>
       <r>   -5.6501    1.0000 </r>
       <r>   -5.5269    1.0000 </r>
       <r>   -5.5206    1.0000 </r>
       <r>   -4.4415    1.0000 </r>
       <r>   -4.4409    1.0000 </r>
       <r>   -4.2760    1.0000 </r>
       <r>   -4.2716    1.0000 </r>
       <r>   -1.1729    1.0000 </r>
       <r>   -1.1396    1.0000 </r>
       <r>   -0.8195    1.0000 </r>
       <r>   -0.8159    1.0000 </r>
       <r>   -0.3771    1.0000 </r>
       <r>   -0.3257    1.0000 </r>
       <r>   -0.0120    1.0000 </r>
       <r>    0.0447    1.0000 </r>
       <r>    0.0911    1.0000 </r>
       <r>    0.1056    1.0000 </r>
       <r>    0.1494    1.0000 </r>
       <r>    0.2211    1.0000 </r>
       <r>    0.2319    1.0000 </r>
       <r>    0.2567    1.0000 </r>
       <r>    0.3096    1.0000 </r>
       <r>    0.3243    1.0000 </r>
       <r>    0.4750    1.0000 </r>
       <r>    0.4845    1.0000 </r>
       <r>    0.5487    1.0000 </r>
       <r>    0.5569    1.0000 </r>
       <r>    0.5677    1.0000 </r>
       <r>    0.5835    1.0000 </r>
       <r>    0.6523    1.0000 </r>
       <r>    0.6586    1.0000 </r>
       <r>    0.7757    1.0000 </r>
       <r>    0.8085    1.0000 </r>
       <r>    0.9082    1.0000 </r>
       <r>    0.9744    1.0000 </r>
       <r>    1.0344    1.0000 </r>
       <r>    1.0676    1.0000 </r>
       <r>    1.0951    1.0000 </r>
       <r>    1.1130    1.0000 </r>
       <r>    1.1634    1.0000 </r>
       <r>    1.1803    1.0000 </r>
       <r>    1.2129    1.0000 </r>
       <r>    1.2374    1.0000 </r>
       <r>    1.3037    1.0000 </r>
       <r>    1.3514    1.0000 </r>
       <r>    1.3639    1.0000 </r>
       <r>    1.4299    1.0000 </r>
       <r>    1.4513    1.0000 </r>
       <r>    1.5247    1.0000 </r>
       <r>    1.5584    1.0000 </r>
       <r>    1.5695    1.0000 </r>
       <r>    1.5921    1.0000 </r>
       <r>    1.6374    1.0000 </r>
       <r>    1.6588    1.0000 </r>
       <r>    1.7076    1.0000 </r>
       <r>    1.7430    1.0000 </r>
       <r>    1.7868    1.0000 </r>
       <r>    1.9057    1.0000 </r>
       <r>    1.9210    1.0000 </r>
       <r>    1.9595    1.0000 </r>
       <r>    2.0312    1.0000 </r>
       <r>    2.0561    1.0000 </r>
       <r>    2.0901    1.0000 </r>
       <r>    2.1072    1.0000 </r>
       <r>    2.1317    1.0000 </r>
       <r>    2.1687    1.0000 </r>
       <r>    2.2130    1.0000 </r>
       <r>    2.2888    1.0000 </r>
       <r>    2.3949    1.0000 </r>
       <r>    2.4223    1.0000 </r>
       <r>    2.4378    1.0000 </r>
       <r>    2.4969    1.0000 </r>
       <r>    2.5301    1.0000 </r>
       <r>    2.5606    1.0000 </r>
       <r>    2.5917    1.0000 </r>
       <r>    2.6354    1.0000 </r>
       <r>    2.6557    1.0000 </r>
       <r>    2.6677    1.0000 </r>
       <r>    2.6782    1.0000 </r>
       <r>    2.8039    1.0000 </r>
       <r>    2.8342    1.0000 </r>
       <r>    2.8503    1.0000 </r>
       <r>    2.8694    1.0000 </r>
       <r>    2.8991    1.0000 </r>
       <r>    2.9140    1.0000 </r>
       <r>    2.9657    1.0000 </r>
       <r>    2.9744    1.0000 </r>
       <r>    2.9942    1.0000 </r>
       <r>    3.0019    1.0000 </r>
       <r>    3.0498    1.0000 </r>
       <r>    3.1489    1.0000 </r>
       <r>    3.1567    1.0000 </r>
       <r>    3.2340    1.0000 </r>
       <r>    3.3106    1.0000 </r>
       <r>    3.3805    1.0000 </r>
       <r>    3.4589    1.0000 </r>
       <r>    3.4834    1.0000 </r>
       <r>    3.4920    1.0000 </r>
       <r>    3.5192    1.0000 </r>
       <r>    3.5493    1.0000 </r>
       <r>    3.5895    1.0000 </r>
       <r>    3.6168    1.0000 </r>
       <r>    3.7316    1.0000 </r>
       <r>    5.6547    0.0000 </r>
       <r>    5.6659    0.0000 </r>
       <r>    5.6742    0.0000 </r>
       <r>    5.6831    0.0000 </r>
       <r>    5.7556    0.0000 </r>
       <r>    5.7698    0.0000 </r>
       <r>    5.7769    0.0000 </r>
       <r>    5.7902    0.0000 </r>
       <r>    7.2665    0.0000 </r>
       <r>    7.2894    0.0000 </r>
       <r>    7.2913    0.0000 </r>
       <r>    7.3177    0.0000 </r>
       <r>    7.3533    0.0000 </r>
       <r>    7.3988    0.0000 </r>
       <r>    7.4395    0.0000 </r>
       <r>    7.4503    0.0000 </r>
       <r>    7.4887    0.0000 </r>
       <r>    7.5009    0.0000 </r>
       <r>    7.5242    0.0000 </r>
       <r>    7.5430    0.0000 </r>
       <r>    7.8325    0.0000 </r>
       <r>    7.8364    0.0000 </r>
       <r>    7.8458    0.0000 </r>
       <r>    7.8569    0.0000 </r>
       <r>    7.8648    0.0000 </r>
       <r>    7.8787    0.0000 </r>
       <r>    7.9222    0.0000 </r>
       <r>    7.9441    0.0000 </r>
       <r>    7.9613    0.0000 </r>
       <r>    8.0008    0.0000 </r>
       <r>    8.0421    0.0000 </r>
       <r>    8.1098    0.0000 </r>
       <r>    8.2610    0.0000 </r>
       <r>    8.3148    0.0000 </r>
       <r>    8.3502    0.0000 </r>
       <r>    8.4719    0.0000 </r>
       <r>    8.6735    0.0000 </r>
       <r>    8.6942    0.0000 </r>
       <r>    8.7552    0.0000 </r>
       <r>    8.7622    0.0000 </r>
       <r>    8.7866    0.0000 </r>
       <r>    8.8055    0.0000 </r>
       <r>    8.9025    0.0000 </r>
       <r>    8.9096    0.0000 </r>
       <r>    9.1957    0.0000 </r>
       <r>    9.2010    0.0000 </r>
       <r>    9.4251    0.0000 </r>
       <r>    9.4930    0.0000 </r>
      </set>
      <set comment="kpoint 3">
       <r>  -40.0710    1.0000 </r>
       <r>  -40.0642    1.0000 </r>
       <r>  -40.0348    1.0000 </r>
       <r>  -39.9482    1.0000 </r>
       <r>  -39.7019    1.0000 </r>
       <r>  -39.6271    1.0000 </r>
       <r>  -39.5939    1.0000 </r>
       <r>  -39.5808    1.0000 </r>
       <r>  -18.8614    1.0000 </r>
       <r>  -18.8574    1.0000 </r>
       <r>  -18.7972    1.0000 </r>
       <r>  -18.7922    1.0000 </r>
       <r>  -18.7907    1.0000 </r>
       <r>  -18.7844    1.0000 </r>
       <r>  -18.6956    1.0000 </r>
       <r>  -18.6882    1.0000 </r>
       <r>  -18.6864    1.0000 </r>
       <r>  -18.6858    1.0000 </r>
       <r>  -18.6794    1.0000 </r>
       <r>  -18.6732    1.0000 </r>
       <r>  -18.6690    1.0000 </r>
       <r>  -18.6690    1.0000 </r>
       <r>  -18.6670    1.0000 </r>
       <r>  -18.6662    1.0000 </r>
       <r>  -18.6645    1.0000 </r>
       <r>  -18.6631    1.0000 </r>
       <r>  -18.6595    1.0000 </r>
       <r>  -18.6587    1.0000 </r>
       <r>  -18.6574    1.0000 </r>
       <r>  -18.6556    1.0000 </r>
       <r>  -18.6552    1.0000 </r>
       <r>  -18.6543    1.0000 </r>
       <r>  -18.6511    1.0000 </r>
       <r>  -18.6504    1.0000 </r>
       <r>  -18.6498    1.0000 </r>
       <r>  -18.6478    1.0000 </r>
       <r>  -18.6477    1.0000 </r>
       <r>  -18.6459    1.0000 </r>
       <r>  -18.6447    1.0000 </r>
       <r>  -18.6445    1.0000 </r>
       <r>  -18.6412    1.0000 </r>
       <r>  -18.6407    1.0000 </r>
       <r>  -18.6391    1.0000 </r>
       <r>  -18.6360    1.0000 </r>
       <r>  -18.6350    1.0000 </r>
       <r>  -18.6348    1.0000 </r>
       <r>  -18.6343    1.0000 </r>
       <r>  -18.6340    1.0000 </r>
       <r>  -18.6319    1.0000 </r>
       <r>  -18.6291    1.0000 </r>
       <r>  -18.6285    1.0000 </r>
       <r>  -18.6210    1.0000 </r>
       <r>  -18.6186    1.0000 </r>
       <r>  -18.6143    1.0000 </r>
       <r>  -18.5194    1.0000 </r>
       <r>  -18.5145    1.0000 </r>
       <r>  -18.5094    1.0000 </r>
       <r>  -18.5072    1.0000 </r>
       <r>  -18.5062    1.0000 </r>
       <r>  -18.5042    1.0000 </r>
       <r>  -18.5011    1.0000 </r>
       <r>  -18.5008    1.0000 </r>
       <r>  -18.4960    1.0000 </r>
       <r>  -18.4955    1.0000 </r>
       <r>  -18.4949    1.0000 </r>
       <r>  -18.4936    1.0000 </r>
       <r>  -18.4926    1.0000 </r>
       <r>  -18.4924    1.0000 </r>
       <r>  -18.4919    1.0000 </r>
       <r>  -18.4901    1.0000 </r>
       <r>  -18.4895    1.0000 </r>
       <r>  -18.4887    1.0000 </r>
       <r>  -18.4887    1.0000 </r>
       <r>  -18.4860    1.0000 </r>
       <r>  -18.4793    1.0000 </r>
       <r>  -18.4783    1.0000 </r>
       <r>  -18.4761    1.0000 </r>
       <r>  -18.4699    1.0000 </r>
       <r>  -18.4648    1.0000 </r>
       <r>  -18.4638    1.0000 </r>
       <r>  -18.4594    1.0000 </r>
       <r>  -18.4569    1.0000 </r>
       <r>  -18.3896    1.0000 </r>
       <r>  -18.3850    1.0000 </r>
       <r>  -18.2739    1.0000 </r>
       <r>  -18.2713    1.0000 </r>
       <r>  -18.2613    1.0000 </r>
       <r>  -18.2485    1.0000 </r>
       <r>  -13.4425    1.0000 </r>
       <r>  -13.4268    1.0000 </r>
       <r>  -12.8739    1.0000 </r>
       <r>  -12.8134    1.0000 </r>
       <r>  -12.7840    1.0000 </r>
       <r>  -12.7454    1.0000 </r>
       <r>  -12.7305    1.0000 </r>
       <r>  -12.7040    1.0000 </r>
       <r>  -12.7013    1.0000 </r>
       <r>  -12.6840    1.0000 </r>
       <r>  -12.6587    1.0000 </r>
       <r>  -12.6469    1.0000 </r>
       <r>  -12.6318    1.0000 </r>
       <r>  -12.6200    1.0000 </r>
       <r>  -12.0541    1.0000 </r>
       <r>  -12.0389    1.0000 </r>
       <r>   -9.3157    1.0000 </r>
       <r>   -9.0376    1.0000 </r>
       <r>   -8.5781    1.0000 </r>
       <r>   -8.5146    1.0000 </r>
       <r>   -8.5119    1.0000 </r>
       <r>   -8.4504    1.0000 </r>
       <r>   -8.3124    1.0000 </r>
       <r>   -8.2493    1.0000 </r>
       <r>   -8.2467    1.0000 </r>
       <r>   -8.1863    1.0000 </r>
       <r>   -8.0531    1.0000 </r>
       <r>   -8.0428    1.0000 </r>
       <r>   -8.0413    1.0000 </r>
       <r>   -8.0309    1.0000 </r>
       <r>   -7.3767    1.0000 </r>
       <r>   -7.3701    1.0000 </r>
       <r>   -6.3703    1.0000 </r>
       <r>   -6.3585    1.0000 </r>
       <r>   -6.3384    1.0000 </r>
       <r>   -6.3308    1.0000 </r>
       <r>   -5.5186    1.0000 </r>
       <r>   -5.4584    1.0000 </r>
       <r>   -5.4135    1.0000 </r>
       <r>   -5.3973    1.0000 </r>
       <r>   -5.3942    1.0000 </r>
       <r>   -5.3200    1.0000 </r>
       <r>   -5.1992    1.0000 </r>
       <r>   -5.1218    1.0000 </r>
       <r>   -5.1215    1.0000 </r>
       <r>   -4.9929    1.0000 </r>
       <r>   -3.9014    1.0000 </r>
       <r>   -3.5887    1.0000 </r>
       <r>   -1.3734    1.0000 </r>
       <r>   -1.2611    1.0000 </r>
       <r>   -1.2438    1.0000 </r>
       <r>   -1.0403    1.0000 </r>
       <r>   -0.4673    1.0000 </r>
       <r>   -0.4352    1.0000 </r>
       <r>   -0.4117    1.0000 </r>
       <r>   -0.3900    1.0000 </r>
       <r>   -0.3823    1.0000 </r>
       <r>   -0.3190    1.0000 </r>
       <r>   -0.2855    1.0000 </r>
       <r>   -0.2261    1.0000 </r>
       <r>   -0.0360    1.0000 </r>
       <r>    0.0260    1.0000 </r>
       <r>    0.0888    1.0000 </r>
       <r>    0.2379    1.0000 </r>
       <r>    0.3070    1.0000 </r>
       <r>    0.3126    1.0000 </r>
       <r>    0.4090    1.0000 </r>
       <r>    0.4423    1.0000 </r>
       <r>    0.4592    1.0000 </r>
       <r>    0.5298    1.0000 </r>
       <r>    0.6970    1.0000 </r>
       <r>    0.7067    1.0000 </r>
       <r>    0.7364    1.0000 </r>
       <r>    0.8081    1.0000 </r>
       <r>    0.8215    1.0000 </r>
       <r>    0.8246    1.0000 </r>
       <r>    1.0265    1.0000 </r>
       <r>    1.1469    1.0000 </r>
       <r>    1.1593    1.0000 </r>
       <r>    1.1755    1.0000 </r>
       <r>    1.2051    1.0000 </r>
       <r>    1.3241    1.0000 </r>
       <r>    1.3671    1.0000 </r>
       <r>    1.4260    1.0000 </r>
       <r>    1.5041    1.0000 </r>
       <r>    1.5477    1.0000 </r>
       <r>    1.5757    1.0000 </r>
       <r>    1.6162    1.0000 </r>
       <r>    1.6310    1.0000 </r>
       <r>    1.6468    1.0000 </r>
       <r>    1.6589    1.0000 </r>
       <r>    1.7029    1.0000 </r>
       <r>    1.7987    1.0000 </r>
       <r>    1.8072    1.0000 </r>
       <r>    1.8721    1.0000 </r>
       <r>    1.8959    1.0000 </r>
       <r>    1.9619    1.0000 </r>
       <r>    1.9915    1.0000 </r>
       <r>    2.0353    1.0000 </r>
       <r>    2.0772    1.0000 </r>
       <r>    2.1210    1.0000 </r>
       <r>    2.1763    1.0000 </r>
       <r>    2.2891    1.0000 </r>
       <r>    2.3323    1.0000 </r>
       <r>    2.3725    1.0000 </r>
       <r>    2.4594    1.0000 </r>
       <r>    2.4724    1.0000 </r>
       <r>    2.5149    1.0000 </r>
       <r>    2.5504    1.0000 </r>
       <r>    2.5607    1.0000 </r>
       <r>    2.5799    1.0000 </r>
       <r>    2.5905    1.0000 </r>
       <r>    2.5988    1.0000 </r>
       <r>    2.6406    1.0000 </r>
       <r>    2.6863    1.0000 </r>
       <r>    2.6904    1.0000 </r>
       <r>    2.7315    1.0000 </r>
       <r>    2.7841    1.0000 </r>
       <r>    2.8136    1.0000 </r>
       <r>    2.8374    1.0000 </r>
       <r>    2.8523    1.0000 </r>
       <r>    2.8556    1.0000 </r>
       <r>    2.8814    1.0000 </r>
       <r>    2.9199    1.0000 </r>
       <r>    2.9394    1.0000 </r>
       <r>    2.9744    1.0000 </r>
       <r>    2.9841    1.0000 </r>
       <r>    3.0127    1.0000 </r>
       <r>    3.0336    1.0000 </r>
       <r>    3.0886    1.0000 </r>
       <r>    3.1388    1.0000 </r>
       <r>    3.2885    1.0000 </r>
       <r>    3.3240    1.0000 </r>
       <r>    3.3532    1.0000 </r>
       <r>    3.3717    1.0000 </r>
       <r>    3.3878    1.0000 </r>
       <r>    3.4052    1.0000 </r>
       <r>    3.4399    1.0000 </r>
       <r>    3.5685    1.0000 </r>
       <r>    3.5989    1.0000 </r>
       <r>    4.2053    1.0000 </r>
       <r>    4.2245    1.0000 </r>
       <r>    4.2505    1.0000 </r>
       <r>    4.2714    1.0000 </r>
       <r>    5.0929    0.0000 </r>
       <r>    5.1110    0.0000 </r>
       <r>    5.2309    0.0000 </r>
       <r>    5.2510    0.0000 </r>
       <r>    5.7400    0.0000 </r>
       <r>    5.7570    0.0000 </r>
       <r>    5.8321    0.0000 </r>
       <r>    5.8544    0.0000 </r>
       <r>    6.1353    0.0000 </r>
       <r>    6.1571    0.0000 </r>
       <r>    6.1590    0.0000 </r>
       <r>    6.1759    0.0000 </r>
       <r>    6.2190    0.0000 </r>
       <r>    6.2416    0.0000 </r>
       <r>    6.2442    0.0000 </r>
       <r>    6.2676    0.0000 </r>
       <r>    6.7876    0.0000 </r>
       <r>    6.8981    0.0000 </r>
       <r>    7.0501    0.0000 </r>
       <r>    7.0810    0.0000 </r>
       <r>    7.1190    0.0000 </r>
       <r>    7.3230    0.0000 </r>
       <r>    7.3656    0.0000 </r>
       <r>    7.5579    0.0000 </r>
       <r>    7.6283    0.0000 </r>
       <r>    7.8370    0.0000 </r>
       <r>    7.9251    0.0000 </r>
       <r>    7.9336    0.0000 </r>
       <r>    8.0833    0.0000 </r>
       <r>    8.2518    0.0000 </r>
       <r>    8.3005    0.0000 </r>
       <r>    8.4436    0.0000 </r>
       <r>    8.7007    0.0000 </r>
       <r>    8.7761    0.0000 </r>
       <r>    8.9780    0.0000 </r>
       <r>    8.9881    0.0000 </r>
       <r>    8.9951    0.0000 </r>
       <r>    9.0508    0.0000 </r>
       <r>    9.0645    0.0000 </r>
       <r>    9.0660    0.0000 </r>
       <r>    9.0939    0.0000 </r>
       <r>    9.1174    0.0000 </r>
       <r>    9.1296    0.0000 </r>
       <r>    9.2033    0.0000 </r>
       <r>    9.4534    0.0000 </r>
       <r>    9.4618    0.0000 </r>
       <r>    9.6134    0.0000 </r>
       <r>    9.8731    0.0000 </r>
      </set>
      <set comment="kpoint 4">
       <r>  -40.0710    1.0000 </r>
       <r>  -40.0642    1.0000 </r>
       <r>  -40.0348    1.0000 </r>
       <r>  -39.9482    1.0000 </r>
       <r>  -39.7019    1.0000 </r>
       <r>  -39.6271    1.0000 </r>
       <r>  -39.5939    1.0000 </r>
       <r>  -39.5808    1.0000 </r>
       <r>  -18.8612    1.0000 </r>
       <r>  -18.8575    1.0000 </r>
       <r>  -18.7968    1.0000 </r>
       <r>  -18.7926    1.0000 </r>
       <r>  -18.7898    1.0000 </r>
       <r>  -18.7854    1.0000 </r>
       <r>  -18.6882    1.0000 </r>
       <r>  -18.6869    1.0000 </r>
       <r>  -18.6864    1.0000 </r>
       <r>  -18.6841    1.0000 </r>
       <r>  -18.6794    1.0000 </r>
       <r>  -18.6787    1.0000 </r>
       <r>  -18.6758    1.0000 </r>
       <r>  -18.6690    1.0000 </r>
       <r>  -18.6680    1.0000 </r>
       <r>  -18.6663    1.0000 </r>
       <r>  -18.6641    1.0000 </r>
       <r>  -18.6632    1.0000 </r>
       <r>  -18.6626    1.0000 </r>
       <r>  -18.6620    1.0000 </r>
       <r>  -18.6602    1.0000 </r>
       <r>  -18.6577    1.0000 </r>
       <r>  -18.6552    1.0000 </r>
       <r>  -18.6548    1.0000 </r>
       <r>  -18.6539    1.0000 </r>
       <r>  -18.6495    1.0000 </r>
       <r>  -18.6488    1.0000 </r>
       <r>  -18.6451    1.0000 </r>
       <r>  -18.6445    1.0000 </r>
       <r>  -18.6429    1.0000 </r>
       <r>  -18.6410    1.0000 </r>
       <r>  -18.6408    1.0000 </r>
       <r>  -18.6390    1.0000 </r>
       <r>  -18.6380    1.0000 </r>
       <r>  -18.6373    1.0000 </r>
       <r>  -18.6368    1.0000 </r>
       <r>  -18.6354    1.0000 </r>
       <r>  -18.6340    1.0000 </r>
       <r>  -18.6332    1.0000 </r>
       <r>  -18.6327    1.0000 </r>
       <r>  -18.6320    1.0000 </r>
       <r>  -18.6298    1.0000 </r>
       <r>  -18.6293    1.0000 </r>
       <r>  -18.6258    1.0000 </r>
       <r>  -18.6188    1.0000 </r>
       <r>  -18.6170    1.0000 </r>
       <r>  -18.5192    1.0000 </r>
       <r>  -18.5144    1.0000 </r>
       <r>  -18.5106    1.0000 </r>
       <r>  -18.5067    1.0000 </r>
       <r>  -18.5055    1.0000 </r>
       <r>  -18.5041    1.0000 </r>
       <r>  -18.5015    1.0000 </r>
       <r>  -18.5007    1.0000 </r>
       <r>  -18.4958    1.0000 </r>
       <r>  -18.4956    1.0000 </r>
       <r>  -18.4952    1.0000 </r>
       <r>  -18.4948    1.0000 </r>
       <r>  -18.4927    1.0000 </r>
       <r>  -18.4921    1.0000 </r>
       <r>  -18.4906    1.0000 </r>
       <r>  -18.4900    1.0000 </r>
       <r>  -18.4895    1.0000 </r>
       <r>  -18.4887    1.0000 </r>
       <r>  -18.4884    1.0000 </r>
       <r>  -18.4866    1.0000 </r>
       <r>  -18.4793    1.0000 </r>
       <r>  -18.4783    1.0000 </r>
       <r>  -18.4759    1.0000 </r>
       <r>  -18.4701    1.0000 </r>
       <r>  -18.4648    1.0000 </r>
[...]
       <r>    8.8186    0.0000 </r>
       <r>    8.8441    0.0000 </r>
       <r>    8.8808    0.0000 </r>
       <r>    8.8827    0.0000 </r>
       <r>    8.8944    0.0000 </r>
       <r>    8.9092    0.0000 </r>
       <r>    8.9546    0.0000 </r>
      </set>
     </set>
    </set>
   </array>
  </eigenvalues>
  <separator name="orbital magnetization" >
   <v name="MAGDIPOLOUT">      0.00000000      0.00000000      0.00000000</v>
  </separator>
  <dos>
   <i name="efermi">      4.35844184 </i>
   <total>
    <array>
     <dimension dim="1">gridpoints</dimension>
     <dimension dim="2">spin</dimension>
     <field>energy</field>
     <field>total</field>
     <field>integrated</field>
     <set>
      <set comment="spin 1">
       <r>   -42.5683     0.0000     0.0000 </r>
       <r>   -42.3851     0.0000     0.0000 </r>
       <r>   -42.2020     0.0000     0.0000 </r>
       <r>   -42.0189     0.0000     0.0000 </r>
       <r>   -41.8357     0.0000     0.0000 </r>
       <r>   -41.6526     0.0000     0.0000 </r>
       <r>   -41.4695     0.0000     0.0000 </r>
       <r>   -41.2864     0.0000     0.0000 </r>
       <r>   -41.1032     0.0000     0.0000 </r>
       <r>   -40.9201     0.0000     0.0000 </r>
       <r>   -40.7370     0.0000     0.0000 </r>
       <r>   -40.5538     0.0000     0.0000 </r>
       <r>   -40.3707     0.0000     0.0000 </r>
       <r>   -40.1876     0.0000     0.0000 </r>
       <r>   -40.0045     0.0000     6.0000 </r>
       <r>   -39.8213     0.0000     8.0000 </r>
       <r>   -39.6382     0.0000    10.0000 </r>
       <r>   -39.4551     0.0000    16.0000 </r>
       <r>   -39.2719     0.0000    16.0000 </r>
       <r>   -39.0888     0.0000    16.0000 </r>
       <r>   -38.9057     0.0000    16.0000 </r>
       <r>   -38.7226     0.0000    16.0000 </r>
       <r>   -38.5394     0.0000    16.0000 </r>
       <r>   -38.3563     0.0000    16.0000 </r>
       <r>   -38.1732     0.0000    16.0000 </r>
       <r>   -37.9900     0.0000    16.0000 </r>
       <r>   -37.8069     0.0000    16.0000 </r>
       <r>   -37.6238     0.0000    16.0000 </r>
       <r>   -37.4407     0.0000    16.0000 </r>
       <r>   -37.2575     0.0000    16.0000 </r>
       <r>   -37.0744     0.0000    16.0000 </r>
       <r>   -36.8913     0.0000    16.0000 </r>
       <r>   -36.7081     0.0000    16.0000 </r>
       <r>   -36.5250     0.0000    16.0000 </r>
       <r>   -36.3419     0.0000    16.0000 </r>
       <r>   -36.1588     0.0000    16.0000 </r>
       <r>   -35.9756     0.0000    16.0000 </r>
       <r>   -35.7925     0.0000    16.0000 </r>
       <r>   -35.6094     0.0000    16.0000 </r>
       <r>   -35.4262     0.0000    16.0000 </r>
       <r>   -35.2431     0.0000    16.0000 </r>
       <r>   -35.0600     0.0000    16.0000 </r>
       <r>   -34.8769     0.0000    16.0000 </r>
       <r>   -34.6937     0.0000    16.0000 </r>
       <r>   -34.5106     0.0000    16.0000 </r>
       <r>   -34.3275     0.0000    16.0000 </r>
       <r>   -34.1443     0.0000    16.0000 </r>
       <r>   -33.9612     0.0000    16.0000 </r>
       <r>   -33.7781     0.0000    16.0000 </r>
       <r>   -33.5950     0.0000    16.0000 </r>
       <r>   -33.4118     0.0000    16.0000 </r>
       <r>   -33.2287     0.0000    16.0000 </r>
       <r>   -33.0456     0.0000    16.0000 </r>
       <r>   -32.8624     0.0000    16.0000 </r>
       <r>   -32.6793     0.0000    16.0000 </r>
       <r>   -32.4962     0.0000    16.0000 </r>
       <r>   -32.3131     0.0000    16.0000 </r>
       <r>   -32.1299     0.0000    16.0000 </r>
       <r>   -31.9468     0.0000    16.0000 </r>
       <r>   -31.7637     0.0000    16.0000 </r>
       <r>   -31.5805     0.0000    16.0000 </r>
       <r>   -31.3974     0.0000    16.0000 </r>
       <r>   -31.2143     0.0000    16.0000 </r>
       <r>   -31.0312     0.0000    16.0000 </r>
       <r>   -30.8480     0.0000    16.0000 </r>
       <r>   -30.6649     0.0000    16.0000 </r>
       <r>   -30.4818     0.0000    16.0000 </r>
       <r>   -30.2986     0.0000    16.0000 </r>
       <r>   -30.1155     0.0000    16.0000 </r>
       <r>   -29.9324     0.0000    16.0000 </r>
       <r>   -29.7493     0.0000    16.0000 </r>
       <r>   -29.5661     0.0000    16.0000 </r>
       <r>   -29.3830     0.0000    16.0000 </r>
       <r>   -29.1999     0.0000    16.0000 </r>
       <r>   -29.0167     0.0000    16.0000 </r>
       <r>   -28.8336     0.0000    16.0000 </r>
       <r>   -28.6505     0.0000    16.0000 </r>
       <r>   -28.4674     0.0000    16.0000 </r>
       <r>   -28.2842     0.0000    16.0000 </r>
       <r>   -28.1011     0.0000    16.0000 </r>
       <r>   -27.9180     0.0000    16.0000 </r>
       <r>   -27.7348     0.0000    16.0000 </r>
       <r>   -27.5517     0.0000    16.0000 </r>
       <r>   -27.3686     0.0000    16.0000 </r>
       <r>   -27.1855     0.0000    16.0000 </r>
       <r>   -27.0023     0.0000    16.0000 </r>
       <r>   -26.8192     0.0000    16.0000 </r>
       <r>   -26.6361     0.0000    16.0000 </r>
       <r>   -26.4529     0.0000    16.0000 </r>
       <r>   -26.2698     0.0000    16.0000 </r>
       <r>   -26.0867     0.0000    16.0000 </r>
       <r>   -25.9036     0.0000    16.0000 </r>
       <r>   -25.7204     0.0000    16.0000 </r>
       <r>   -25.5373     0.0000    16.0000 </r>
       <r>   -25.3542     0.0000    16.0000 </r>
       <r>   -25.1710     0.0000    16.0000 </r>
       <r>   -24.9879     0.0000    16.0000 </r>
       <r>   -24.8048     0.0000    16.0000 </r>
       <r>   -24.6217     0.0000    16.0000 </r>
       <r>   -24.4385     0.0000    16.0000 </r>
       <r>   -24.2554     0.0000    16.0000 </r>
       <r>   -24.0723     0.0000    16.0000 </r>
       <r>   -23.8891     0.0000    16.0000 </r>
       <r>   -23.7060     0.0000    16.0000 </r>
       <r>   -23.5229     0.0000    16.0000 </r>
       <r>   -23.3398     0.0000    16.0000 </r>
       <r>   -23.1566     0.0000    16.0000 </r>
       <r>   -22.9735     0.0000    16.0000 </r>
       <r>   -22.7904     0.0000    16.0000 </r>
       <r>   -22.6072     0.0000    16.0000 </r>
       <r>   -22.4241     0.0000    16.0000 </r>
       <r>   -22.2410     0.0000    16.0000 </r>
       <r>   -22.0579     0.0000    16.0000 </r>
       <r>   -21.8747     0.0000    16.0000 </r>
       <r>   -21.6916     0.0000    16.0000 </r>
       <r>   -21.5085     0.0000    16.0000 </r>
       <r>   -21.3253     0.0000    16.0000 </r>
       <r>   -21.1422     0.0000    16.0000 </r>
       <r>   -20.9591     0.0000    16.0000 </r>
       <r>   -20.7760     0.0000    16.0000 </r>
       <r>   -20.5928     0.0000    16.0000 </r>
       <r>   -20.4097     0.0000    16.0000 </r>
       <r>   -20.2266     0.0000    16.0000 </r>
       <r>   -20.0434     0.0000    16.0000 </r>
       <r>   -19.8603     0.0000    16.0000 </r>
       <r>   -19.6772     0.0000    16.0000 </r>
       <r>   -19.4941     0.0000    16.0000 </r>
       <r>   -19.3109     0.0000    16.0000 </r>
       <r>   -19.1278     0.0000    16.0000 </r>
       <r>   -18.9447     0.0000    16.0000 </r>
       <r>   -18.7615     0.0000    28.0000 </r>
       <r>   -18.5784     0.0000   108.0000 </r>
       <r>   -18.3953     0.0000   164.0000 </r>
       <r>   -18.2122     0.0000   176.0000 </r>
       <r>   -18.0290     0.0000   176.0000 </r>
       <r>   -17.8459     0.0000   176.0000 </r>
       <r>   -17.6628     0.0000   176.0000 </r>
       <r>   -17.4796     0.0000   176.0000 </r>
       <r>   -17.2965     0.0000   176.0000 </r>
       <r>   -17.1134     0.0000   176.0000 </r>
       <r>   -16.9303     0.0000   176.0000 </r>
       <r>   -16.7471     0.0000   176.0000 </r>
       <r>   -16.5640     0.0000   176.0000 </r>
       <r>   -16.3809     0.0000   176.0000 </r>
       <r>   -16.1977     0.0000   176.0000 </r>
       <r>   -16.0146     0.0000   176.0000 </r>
       <r>   -15.8315     0.0000   176.0000 </r>
       <r>   -15.6484     0.0000   176.0000 </r>
       <r>   -15.4652     0.0000   176.0000 </r>
       <r>   -15.2821     0.0000   176.0000 </r>
       <r>   -15.0990     0.0000   176.0000 </r>
       <r>   -14.9158     0.0000   176.0000 </r>
       <r>   -14.7327     0.0000   176.0000 </r>
       <r>   -14.5496     0.0000   176.0000 </r>
       <r>   -14.3665     0.0000   176.0000 </r>
       <r>   -14.1833     0.0000   176.0000 </r>
       <r>   -14.0002     0.0000   176.0000 </r>
       <r>   -13.8171     0.0000   176.0000 </r>
       <r>   -13.6339     0.0000   176.0000 </r>
       <r>   -13.4508     0.0000   176.0000 </r>
       <r>   -13.2677     0.0000   180.0000 </r>
       <r>   -13.0846     0.0000   180.0000 </r>
       <r>   -12.9014     0.0000   180.0000 </r>
       <r>   -12.7183    76.0421   189.3642 </r>
       <r>   -12.5352     0.0000   204.0000 </r>
       <r>   -12.3520     0.0000   204.0000 </r>
       <r>   -12.1689     0.0000   204.0000 </r>
       <r>   -11.9858     0.0000   208.0000 </r>
       <r>   -11.8027     0.0000   208.0000 </r>
       <r>   -11.6195     0.0000   208.0000 </r>
       <r>   -11.4364     0.0000   208.0000 </r>
       <r>   -11.2533     0.0000   208.0000 </r>
       <r>   -11.0701     0.0000   208.0000 </r>
       <r>   -10.8870     0.0000   208.0000 </r>
       <r>   -10.7039     0.0000   208.0000 </r>
       <r>   -10.5208     0.0000   208.0000 </r>
       <r>   -10.3376     0.0000   208.0000 </r>
       <r>   -10.1545     0.0000   208.0000 </r>
       <r>    -9.9714     0.0000   208.0000 </r>
       <r>    -9.7882     0.0000   208.0000 </r>
       <r>    -9.6051     0.0000   208.0000 </r>
       <r>    -9.4220     0.0000   208.0000 </r>
       <r>    -9.2389     4.0921   208.1686 </r>
       <r>    -9.0557    23.2165   210.6008 </r>
       <r>    -8.8726     4.9298   212.0137 </r>
       <r>    -8.6895     9.3476   215.2865 </r>
       <r>    -8.5063    20.9051   217.5215 </r>
       <r>    -8.3232    23.7309   223.4671 </r>
       <r>    -8.1401    27.0563   225.2269 </r>
       <r>    -7.9570    22.0478   230.4026 </r>
       <r>    -7.7738    17.2504   233.9920 </r>
       <r>    -7.5907    26.5107   237.6043 </r>
       <r>    -7.4076     3.5211   239.9370 </r>
       <r>    -7.2244     0.0000   240.0000 </r>
       <r>    -7.0413     0.0000   240.0000 </r>
       <r>    -6.8582     0.0000   240.0000 </r>
       <r>    -6.6751     0.0000   240.0000 </r>
       <r>    -6.4919     0.0000   240.0000 </r>
       <r>    -6.3088     4.0587   240.1066 </r>
       <r>    -6.1257    19.8320   242.2936 </r>
       <r>    -5.9425    29.8931   247.3632 </r>
       <r>    -5.7594    31.2447   250.9608 </r>
       <r>    -5.5763    22.7374   255.7945 </r>
       <r>    -5.3932    19.9494   259.7442 </r>
       <r>    -5.2100    13.1212   262.8998 </r>
       <r>    -5.0269     1.7257   264.1002 </r>
       <r>    -4.8438     7.7959   265.0362 </r>
       <r>    -4.6606     9.6957   266.5858 </r>
       <r>    -4.4775     8.6396   268.5679 </r>
       <r>    -4.2944     6.7342   269.6509 </r>
       <r>    -4.1113     5.9696   270.9473 </r>
       <r>    -3.9281     2.4999   271.7210 </r>
       <r>    -3.7450     0.6386   271.9622 </r>
       <r>    -3.5619     0.0000   272.0000 </r>
       <r>    -3.3787     0.0000   272.0000 </r>
       <r>    -3.1956     0.0000   272.0000 </r>
       <r>    -3.0125     0.0000   272.0000 </r>
       <r>    -2.8294     0.0000   272.0000 </r>
       <r>    -2.6462     0.0000   272.0000 </r>
       <r>    -2.4631     0.0000   272.0000 </r>
       <r>    -2.2800     0.0000   272.0000 </r>
       <r>    -2.0968     0.0000   272.0000 </r>
       <r>    -1.9137     0.0000   272.0000 </r>
       <r>    -1.7306     0.0000   272.0000 </r>
       <r>    -1.5475     0.0000   272.0000 </r>
       <r>    -1.3643     1.0745   272.0371 </r>
       <r>    -1.1812     9.4434   272.7916 </r>
       <r>    -0.9981    10.5785   274.6422 </r>
       <r>    -0.8149    10.9518   277.1286 </r>
       <r>    -0.6318     6.8370   278.7577 </r>
       <r>    -0.4487     8.7949   279.8741 </r>
       <r>    -0.2656    25.4033   283.1870 </r>
       <r>    -0.0824    39.5168   288.7340 </r>
       <r>     0.1007    38.7014   296.0204 </r>
       <r>     0.2838    33.9061   301.8458 </r>
       <r>     0.4670    41.0751   309.3018 </r>
       <r>     0.6501    42.1546   316.9113 </r>
       <r>     0.8332    21.3458   322.8073 </r>
       <r>     1.0163    45.1668   328.8929 </r>
       <r>     1.1995    34.8897   338.6996 </r>
       <r>     1.3826    56.7087   346.7881 </r>
       <r>     1.5657    58.4674   356.5635 </r>
       <r>     1.7489    46.9358   366.6810 </r>
       <r>     1.9320    45.1066   374.1725 </r>
       <r>     2.1151    40.5194   381.3828 </r>
       <r>     2.2982    41.7549   389.5994 </r>
       <r>     2.4814    62.1623   398.8128 </r>
       <r>     2.6645    64.9062   409.5212 </r>
       <r>     2.8476    47.6321   420.5453 </r>
       <r>     3.0308    66.5959   436.1103 </r>
       <r>     3.2139    40.3340   444.3591 </r>
       <r>     3.3970    44.4550   450.7006 </r>
       <r>     3.5801    25.2795   457.8537 </r>
       <r>     3.7633    13.5443   460.9127 </r>
       <r>     3.9464     8.0810   462.8928 </r>
       <r>     4.1295     2.6186   463.8725 </r>
       <r>     4.3127     0.0000   464.0000 </r>
       <r>     4.4958     0.0000   464.0000 </r>
       <r>     4.6789     0.0000   464.0000 </r>
       <r>     4.8620     0.0000   464.0000 </r>
       <r>     5.0452     0.0257   464.0002 </r>
       <r>     5.2283     1.6678   464.1230 </r>
       <r>     5.4114     5.5236   464.7790 </r>
       <r>     5.5946     9.4150   466.1467 </r>
       <r>     5.7777    32.3806   468.5335 </r>
       <r>     5.9608    13.7420   472.3978 </r>
       <r>     6.1439    11.6423   474.7068 </r>
       <r>     6.3271    12.3169   476.8583 </r>
       <r>     6.5102    13.9020   479.2593 </r>
       <r>     6.6933    15.4703   481.9490 </r>
       <r>     6.8765    17.3328   484.9338 </r>
       <r>     7.0596    21.3502   488.4276 </r>
       <r>     7.2427    33.3047   493.1678 </r>
       <r>     7.4258    50.2230   500.5901 </r>
       <r>     7.6090    22.2920   506.6220 </r>
       <r>     7.7921    46.0579   513.4990 </r>
       <r>     7.9752    40.2253   522.2785 </r>
       <r>     8.1584    21.8627   527.6654 </r>
       <r>     8.3415    18.5580   531.1733 </r>
       <r>     8.5246    23.0463   534.9732 </r>
       <r>     8.7077    24.4776   539.4702 </r>
       <r>     8.8909    47.0093   547.1149 </r>
       <r>     9.0740    23.1573   552.8314 </r>
       <r>     9.2571    13.6747   556.0290 </r>
       <r>     9.4403     9.8459   558.0929 </r>
       <r>     9.6234     3.0692   559.7428 </r>
       <r>     9.8065     0.2198   559.9951 </r>
       <r>     9.9896     0.0000   560.0000 </r>
       <r>    10.1728     0.0000   560.0000 </r>
       <r>    10.3559     0.0000   560.0000 </r>
       <r>    10.5390     0.0000   560.0000 </r>
       <r>    10.7222     0.0000   560.0000 </r>
       <r>    10.9053     0.0000   560.0000 </r>
       <r>    11.0884     0.0000   560.0000 </r>
       <r>    11.2715     0.0000   560.0000 </r>
       <r>    11.4547     0.0000   560.0000 </r>
       <r>    11.6378     0.0000   560.0000 </r>
       <r>    11.8209     0.0000   560.0000 </r>
       <r>    12.0041     0.0000   560.0000 </r>
       <r>    12.1872     0.0000   560.0000 </r>
       <r>    12.3703     0.0000   560.0000 </r>
      </set>
     </set>
    </array>
   </total>
  </dos>
 </calculation>
 <structure name="finalpos" >
  <crystal>
   <varray name="basis" >
    <v>      11.17850000       0.00000000       0.00000000 </v>
    <v>       0.00000000       9.57460000       0.00000000 </v>
    <v>       0.00000000       0.00000000      11.18240000 </v>
   </varray>
   <i name="volume">   1196.84853820 </i>
   <varray name="rec_basis" >
    <v>       0.08945744       0.00000000       0.00000000 </v>
    <v>       0.00000000       0.10444301       0.00000000 </v>
    <v>       0.00000000       0.00000000       0.08942624 </v>
   </varray>
  </crystal>
  <varray name="positions" >
   <v>       0.12461000       0.99984000       0.18687000 </v>
   <v>       0.37461000       0.00017000       0.18687000 </v>
   <v>       0.62461000       0.99984000       0.18687000 </v>
   <v>       0.87461000       0.00017000       0.18687000 </v>
   <v>       0.62539000       0.99984000       0.93687000 </v>
   <v>       0.87539000       0.00017000       0.93687000 </v>
   <v>       0.62461000       0.99984000       0.68687000 </v>
   <v>       0.87461000       0.00017000       0.68687000 </v>
   <v>       0.37539000       0.00017000       0.43687000 </v>
   <v>       0.87539000       0.00017000       0.43687000 </v>
   <v>       0.37539000       0.00017000       0.93687000 </v>
   <v>       0.12461000       0.99984000       0.68687000 </v>
   <v>       0.00013000       0.29519000       0.06281000 </v>
   <v>       0.25013000       0.70481000       0.06281000 </v>
   <v>       0.24987000       0.29519000       0.31282000 </v>
   <v>       0.49987000       0.70481000       0.31282000 </v>
   <v>       0.50013000       0.29519000       0.06281000 </v>
   <v>       0.75013000       0.70481000       0.06281000 </v>
   <v>       0.74987000       0.29519000       0.31282000 </v>
   <v>       0.99987000       0.70481000       0.31282000 </v>
   <v>       0.00013000       0.29519000       0.56281000 </v>
   <v>       0.25013000       0.70481000       0.56281000 </v>
   <v>       0.24987000       0.29519000       0.81282000 </v>
   <v>       0.49987000       0.70481000       0.81282000 </v>
   <v>       0.50013000       0.29519000       0.56281000 </v>
   <v>       0.75013000       0.70481000       0.56281000 </v>
   <v>       0.74987000       0.29519000       0.81282000 </v>
   <v>       0.99987000       0.70481000       0.81282000 </v>
   <v>       0.25005000       0.32677000       0.06286000 </v>
   <v>       0.00005000       0.67323000       0.06286000 </v>
   <v>       0.49995000       0.32677000       0.31286000 </v>
   <v>       0.24995000       0.67323000       0.31286000 </v>
   <v>       0.75005000       0.32677000       0.06286000 </v>
   <v>       0.50005000       0.67323000       0.06286000 </v>
   <v>       0.99995000       0.32677000       0.31286000 </v>
   <v>       0.74995000       0.67323000       0.31286000 </v>
   <v>       0.25005000       0.32677000       0.56286000 </v>
   <v>       0.00005000       0.67323000       0.56286000 </v>
   <v>       0.49995000       0.32677000       0.81286000 </v>
   <v>       0.24995000       0.67323000       0.81286000 </v>
   <v>       0.75005000       0.32677000       0.56286000 </v>
   <v>       0.50005000       0.67323000       0.56286000 </v>
   <v>       0.99995000       0.32677000       0.81286000 </v>
   <v>       0.74995000       0.67323000       0.81286000 </v>
   <v>       0.49987000       0.07798000       0.06246000 </v>
   <v>       0.24987000       0.92202000       0.06246000 </v>
   <v>       0.25013000       0.07798000       0.31246000 </v>
   <v>       0.00013000       0.92202000       0.31246000 </v>
   <v>       0.99987000       0.07798000       0.06246000 </v>
   <v>       0.74987000       0.92202000       0.06246000 </v>
   <v>       0.75013000       0.07798000       0.31246000 </v>
   <v>       0.50013000       0.92202000       0.31246000 </v>
   <v>       0.49987000       0.07798000       0.56246000 </v>
   <v>       0.24987000       0.92202000       0.56246000 </v>
   <v>       0.25013000       0.07798000       0.81246000 </v>
   <v>       0.00013000       0.92202000       0.81246000 </v>
   <v>       0.99987000       0.07798000       0.56246000 </v>
   <v>       0.74987000       0.92202000       0.56246000 </v>
   <v>       0.75013000       0.07798000       0.81246000 </v>
   <v>       0.50013000       0.92202000       0.81246000 </v>
  </varray>
 </structure>
</modeling>
