<?xml version="1.0" encoding="ISO-8859-1"?>
<modeling>
 <generator>
  <i name="program" type="string">vasp </i>
  <i name="version" type="string">5.4.4.18Apr17-6-g9f103f2a35  </i>
  <i name="subversion" type="string">(build Jul 31 2017 11:33:29) complex            parallel </i>
  <i name="platform" type="string">LinuxIFC </i>
  <i name="date" type="string">2021 09 29 </i>
  <i name="time" type="string">14:22:07 </i>
 </generator>
 <incar>
  <i type="string" name="SYSTEM"> La2O2S</i>
  <i type="string" name="PREC">normal</i>
  <i type="int" name="NELMIN">     4</i>
  <i type="int" name="IBRION">     2</i>
  <i type="int" name="NFREE">    10</i>
  <i name="EDIFF">      0.00000100</i>
  <i name="EDIFFG">     -0.01000000</i>
  <i type="int" name="NSW">     1</i>
  <i type="int" name="ISIF">     2</i>
  <i name="ENCUT">    600.00000000</i>
  <i name="ENAUG">    900.00000000</i>
  <i type="int" name="ISMEAR">    -5</i>
  <i type="logical" name="LWAVE"> F  </i>
  <i type="logical" name="LCHARG"> F  </i>
  <v type="int" name="KPOINT_BSE">    -1     0     0     0</v>
 </incar>
 <structure name="primitive_cell" >
  <crystal>
   <varray name="basis" >
    <v>      11.17850000       0.00000000       0.00000000 </v>
    <v>       0.00000000       9.57460000       0.00000000 </v>
    <v>       0.00000000       0.00000000      11.18240000 </v>
   </varray>
   <i name="volume">   1196.84853820 </i>
   <varray name="rec_basis" >
    <v>       0.08945744       0.00000000       0.00000000 </v>
    <v>       0.00000000       0.10444301       0.00000000 </v>
    <v>       0.00000000       0.00000000       0.08942624 </v>
   </varray>
  </crystal>
  <varray name="positions" >
   <v>       0.37539000       0.00017000       0.43687000 </v>
   <v>      -0.49987000      -0.07798000       0.31246000 </v>
   <v>       0.25013000       0.07798000       0.31246000 </v>
   <v>       0.49987000       0.07798000      -0.43754000 </v>
   <v>       0.24987000      -0.07798000      -0.43754000 </v>
   <v>       0.37461000       0.00017000       0.18687000 </v>
   <v>       0.49987000      -0.29519000       0.31282000 </v>
   <v>       0.24987000       0.29519000       0.31282000 </v>
   <v>      -0.49987000       0.29519000      -0.43719000 </v>
   <v>       0.25013000      -0.29519000      -0.43719000 </v>
   <v>       0.49995000       0.32677000       0.31286000 </v>
   <v>       0.24995000      -0.32677000       0.31286000 </v>
   <v>      -0.49995000      -0.32677000      -0.43714000 </v>
   <v>       0.25005000       0.32677000      -0.43714000 </v>
   <v>      -0.37539000      -0.00016000       0.18687000 </v>
   <v>      -0.37539000      -0.00016000      -0.31313000 </v>
   <v>       0.12461000      -0.00016000       0.18687000 </v>
   <v>       0.12461000      -0.00016000      -0.31313000 </v>
   <v>       0.49987000       0.07798000       0.06246000 </v>
   <v>      -0.24987000       0.07798000       0.31246000 </v>
   <v>      -0.25013000      -0.07798000      -0.43754000 </v>
   <v>       0.24987000      -0.07798000       0.06246000 </v>
   <v>       0.00013000      -0.07798000       0.31246000 </v>
   <v>      -0.49987000      -0.07798000      -0.18754000 </v>
   <v>      -0.00013000       0.07798000      -0.43754000 </v>
   <v>       0.25013000       0.07798000      -0.18754000 </v>
   <v>      -0.49987000       0.29519000       0.06281000 </v>
   <v>      -0.25013000       0.29519000       0.31282000 </v>
   <v>       0.25013000      -0.29519000       0.06281000 </v>
   <v>      -0.24987000      -0.29519000      -0.43719000 </v>
   <v>      -0.00013000      -0.29519000       0.31282000 </v>
   <v>       0.00013000       0.29519000      -0.43719000 </v>
   <v>       0.49987000      -0.29519000      -0.18718000 </v>
   <v>       0.24987000       0.29519000      -0.18718000 </v>
   <v>      -0.49995000      -0.32677000       0.06286000 </v>
   <v>       0.25005000       0.32677000       0.06286000 </v>
   <v>      -0.25005000      -0.32677000       0.31286000 </v>
   <v>      -0.24995000       0.32677000      -0.43714000 </v>
   <v>      -0.00005000       0.32677000       0.31286000 </v>
   <v>       0.00005000      -0.32677000      -0.43714000 </v>
   <v>       0.49995000       0.32677000      -0.18714000 </v>
   <v>       0.24995000      -0.32677000      -0.18714000 </v>
   <v>      -0.12461000       0.00017000       0.43687000 </v>
   <v>       0.37539000       0.00017000      -0.06313000 </v>
   <v>      -0.25013000      -0.07798000       0.06246000 </v>
   <v>      -0.00013000       0.07798000       0.06246000 </v>
   <v>      -0.24987000       0.07798000      -0.18754000 </v>
   <v>       0.00013000      -0.07798000      -0.18754000 </v>
   <v>      -0.12539000       0.00017000       0.18687000 </v>
   <v>      -0.37461000      -0.00016000      -0.06313000 </v>
   <v>      -0.24987000      -0.29519000       0.06281000 </v>
   <v>       0.00013000       0.29519000       0.06281000 </v>
   <v>      -0.25013000       0.29519000      -0.18718000 </v>
   <v>      -0.00013000      -0.29519000      -0.18718000 </v>
   <v>      -0.24995000       0.32677000       0.06286000 </v>
   <v>       0.00005000      -0.32677000       0.06286000 </v>
   <v>      -0.25005000      -0.32677000      -0.18714000 </v>
   <v>      -0.00005000       0.32677000      -0.18714000 </v>
   <v>      -0.12461000       0.00017000      -0.06313000 </v>
  </varray>
 </structure>
 <varray name="primitive_index" >
  <v type="int" >        1 </v>
  <v type="int" >       51 </v>
  <v type="int" >       46 </v>
  <v type="int" >       52 </v>
  <v type="int" >       53 </v>
  <v type="int" >        3 </v>
  <v type="int" >       15 </v>
  <v type="int" >       14 </v>
  <v type="int" >       24 </v>
  <v type="int" >       21 </v>
  <v type="int" >       30 </v>
  <v type="int" >       31 </v>
  <v type="int" >       41 </v>
  <v type="int" >       36 </v>
  <v type="int" >        4 </v>
  <v type="int" >       11 </v>
  <v type="int" >        2 </v>
  <v type="int" >        9 </v>
  <v type="int" >       44 </v>
  <v type="int" >       50 </v>
  <v type="int" >       57 </v>
  <v type="int" >       45 </v>
  <v type="int" >       47 </v>
  <v type="int" >       59 </v>
  <v type="int" >       56 </v>
  <v type="int" >       54 </v>
  <v type="int" >       16 </v>
  <v type="int" >       18 </v>
  <v type="int" >       13 </v>
  <v type="int" >       25 </v>
  <v type="int" >       19 </v>
  <v type="int" >       20 </v>
  <v type="int" >       23 </v>
  <v type="int" >       22 </v>
  <v type="int" >       33 </v>
  <v type="int" >       28 </v>
  <v type="int" >       35 </v>
  <v type="int" >       40 </v>
  <v type="int" >       34 </v>
  <v type="int" >       37 </v>
  <v type="int" >       38 </v>
  <v type="int" >       39 </v>
  <v type="int" >        7 </v>
  <v type="int" >        8 </v>
  <v type="int" >       49 </v>
  <v type="int" >       48 </v>
  <v type="int" >       58 </v>
  <v type="int" >       55 </v>
  <v type="int" >        5 </v>
  <v type="int" >        6 </v>
  <v type="int" >       17 </v>
  <v type="int" >       12 </v>
  <v type="int" >       26 </v>
  <v type="int" >       27 </v>
  <v type="int" >       32 </v>
  <v type="int" >       29 </v>
  <v type="int" >       43 </v>
  <v type="int" >       42 </v>
  <v type="int" >       10 </v>
 </varray>
 <kpoints>
  <generation param="Gamma">
   <v type="int" name="divisions">       2        2        2 </v>
   <v name="usershift">      0.00000000       0.00000000       0.00000000 </v>
   <v name="genvec1">      0.50000000       0.00000000       0.00000000 </v>
   <v name="genvec2">      0.00000000       0.50000000       0.00000000 </v>
   <v name="genvec3">      0.00000000       0.00000000       0.50000000 </v>
   <v name="shift">      0.00000000       0.00000000       0.00000000 </v>
  </generation>
  <varray name="kpointlist" >
   <v>       0.00000000       0.00000000       0.00000000 </v>
   <v>       0.50000000       0.00000000       0.00000000 </v>
   <v>       0.00000000       0.50000000       0.00000000 </v>
   <v>       0.50000000       0.50000000       0.00000000 </v>
   <v>       0.00000000       0.00000000       0.50000000 </v>
   <v>       0.50000000       0.00000000       0.50000000 </v>
   <v>       0.00000000       0.50000000       0.50000000 </v>
   <v>       0.50000000       0.50000000       0.50000000 </v>
  </varray>
  <varray name="weights" >
   <v>       0.12500000 </v>
   <v>       0.12500000 </v>
   <v>       0.12500000 </v>
   <v>       0.12500000 </v>
   <v>       0.12500000 </v>
   <v>       0.12500000 </v>
   <v>       0.12500000 </v>
   <v>       0.12500000 </v>
  </varray>
  <varray name="tetrahedronlist"  type="int" >
   <v type="int" >        2        1        2        4        5 </v>
   <v type="int" >        2        1        3        4        5 </v>
   <v type="int" >        2        3        4        5        7 </v>
   <v type="int" >        2        2        4        5        6 </v>
   <v type="int" >        2        4        5        6        8 </v>
   <v type="int" >        2        4        5        7        8 </v>
   <v type="int" >        2        1        2        3        6 </v>
   <v type="int" >        2        2        3        4        6 </v>
   <v type="int" >        2        3        4        6        8 </v>
   <v type="int" >        2        1        3        5        6 </v>
   <v type="int" >        2        3        5        6        7 </v>
   <v type="int" >        2        3        6        7        8 </v>
   <v type="int" >        2        2        3        4        7 </v>
   <v type="int" >        2        1        2        3        7 </v>
   <v type="int" >        2        1        2        5        7 </v>
   <v type="int" >        2        2        4        7        8 </v>
   <v type="int" >        2        2        6        7        8 </v>
   <v type="int" >        2        2        5        6        7 </v>
   <v type="int" >        2        1        3        4        8 </v>
   <v type="int" >        2        1        2        4        8 </v>
   <v type="int" >        2        1        2        6        8 </v>
   <v type="int" >        2        1        3        7        8 </v>
   <v type="int" >        2        1        5        7        8 </v>
   <v type="int" >        2        1        5        6        8 </v>
  </varray>
  <i name="volumeweight">      0.02083333 </i>
 </kpoints>
 <parameters>
  <separator name="general" >
   <i type="string" name="SYSTEM">La2O2S</i>
   <i type="logical" name="LCOMPAT"> F  </i>
  </separator>
  <separator name="electronic" >
   <i type="string" name="PREC">normal</i>
   <i name="ENMAX">    600.00000000</i>
   <i name="ENAUG">    900.00000000</i>
   <i name="EDIFF">      0.00000100</i>
   <i type="int" name="IALGO">    38</i>
   <i type="int" name="IWAVPR">    11</i>
   <i type="int" name="NBANDS">   280</i>
   <i name="NELECT">    460.00000000</i>
   <i type="int" name="TURBO">     0</i>
   <i type="int" name="IRESTART">     0</i>
   <i type="int" name="NREBOOT">     0</i>
   <i type="int" name="NMIN">     0</i>
   <i name="EREF">      0.00000000</i>
   <separator name="electronic smearing" >
    <i type="int" name="ISMEAR">    -5</i>
    <i name="SIGMA">      0.20000000</i>
    <i name="KSPACING">      0.50000000</i>
    <i type="logical" name="KGAMMA"> T  </i>
   </separator>
   <separator name="electronic projectors" >
    <i type="logical" name="LREAL"> F  </i>
    <v name="ROPT">      0.00000000      0.00000000      0.00000000      0.00000000      0.00000000</v>
    <i type="int" name="LMAXPAW">  -100</i>
    <i type="int" name="LMAXMIX">     2</i>
    <i type="logical" name="NLSPLINE"> F  </i>
   </separator>
   <separator name="electronic startup" >
    <i type="int" name="ISTART">     0</i>
    <i type="int" name="ICHARG">     2</i>
    <i type="int" name="INIWAV">     1</i>
   </separator>
   <separator name="electronic spin" >
    <i type="int" name="ISPIN">     1</i>
    <i type="logical" name="LNONCOLLINEAR"> F  </i>
    <v name="MAGMOM">      1.00000000      1.00000000      1.00000000      1.00000000      1.00000000      1.00000000      1.00000000      1.00000000      1.00000000      1.00000000      1.00000000      1.00000000      1.00000000      1.00000000      1.00000000      1.00000000      1.00000000      1.00000000      1.00000000      1.00000000
      1.00000000      1.00000000      1.00000000      1.00000000      1.00000000      1.00000000      1.00000000      1.00000000      1.00000000      1.00000000      1.00000000      1.00000000      1.00000000      1.00000000      1.00000000      1.00000000      1.00000000      1.00000000      1.00000000      1.00000000
      1.00000000      1.00000000      1.00000000      1.00000000      1.00000000      1.00000000      1.00000000      1.00000000      1.00000000      1.00000000      1.00000000      1.00000000      1.00000000      1.00000000      1.00000000      1.00000000      1.00000000      1.00000000      1.00000000</v>
    <i name="NUPDOWN">     -1.00000000</i>
    <i type="logical" name="LSORBIT"> F  </i>
    <v name="SAXIS">      0.00000000      0.00000000      1.00000000</v>
    <i type="logical" name="LSPIRAL"> F  </i>
    <v name="QSPIRAL">      0.00000000      0.00000000      0.00000000</v>
    <i type="logical" name="LZEROZ"> F  </i>
   </separator>
   <separator name="electronic exchange-correlation" >
    <i type="logical" name="LASPH"> F  </i>
    <i type="logical" name="LMETAGGA"> F  </i>
   </separator>
   <separator name="electronic convergence" >
    <i type="int" name="NELM">    60</i>
    <i type="int" name="NELMDL">    -5</i>
    <i type="int" name="NELMIN">     4</i>
    <i name="ENINI">    600.00000000</i>
    <separator name="electronic convergence detail" >
     <i type="logical" name="LDIAG"> T  </i>
     <i type="logical" name="LSUBROT"> F  </i>
     <i name="WEIMIN">      0.00100000</i>
     <i name="EBREAK">      0.00000000</i>
     <i name="DEPER">      0.30000000</i>
     <i type="int" name="NRMM">     4</i>
     <i name="TIME">      0.40000000</i>
    </separator>
   </separator>
   <separator name="electronic mixer" >
    <i name="AMIX">      0.40000000</i>
    <i name="BMIX">      1.00000000</i>
    <i name="AMIN">      0.10000000</i>
    <i name="AMIX_MAG">      1.60000000</i>
    <i name="BMIX_MAG">      1.00000000</i>
    <separator name="electronic mixer details" >
     <i type="int" name="IMIX">     4</i>
     <i type="logical" name="MIXFIRST"> F  </i>
     <i type="int" name="MAXMIX">   -45</i>
     <i name="WC">    100.00000000</i>
     <i type="int" name="INIMIX">     1</i>
     <i type="int" name="MIXPRE">     1</i>
     <i type="int" name="MREMOVE">     5</i>
    </separator>
   </separator>
   <separator name="electronic dipolcorrection" >
    <i type="logical" name="LDIPOL"> F  </i>
    <i type="logical" name="LMONO"> F  </i>
    <i type="int" name="IDIPOL">     0</i>
    <i name="EPSILON">      1.00000000</i>
    <v name="DIPOL">   -100.00000000   -100.00000000   -100.00000000</v>
    <i name="EFIELD">      0.00000000</i>
   </separator>
  </separator>
  <separator name="grids" >
   <i type="int" name="NGX">    70</i>
   <i type="int" name="NGY">    60</i>
   <i type="int" name="NGZ">    70</i>
   <i type="int" name="NGXF">   140</i>
   <i type="int" name="NGYF">   120</i>
   <i type="int" name="NGZF">   140</i>
   <i type="logical" name="ADDGRID"> F  </i>
  </separator>
  <separator name="ionic" >
   <i type="int" name="NSW">     1</i>
   <i type="int" name="IBRION">     2</i>
   <i type="int" name="MDALGO">     0</i>
   <i type="int" name="ISIF">     2</i>
   <i name="PSTRESS">      0.00000000</i>
   <i name="EDIFFG">     -0.01000000</i>
   <i type="int" name="NFREE">    10</i>
   <i name="POTIM">      0.50000000</i>
   <i name="SMASS">     -3.00000000</i>
   <i name="SCALEE">      1.00000000</i>
  </separator>
  <separator name="ionic md" >
   <i name="TEBEG">      0.00010000</i>
   <i name="TEEND">      0.00010000</i>
   <i type="int" name="NBLOCK">     1</i>
   <i type="int" name="KBLOCK">     1</i>
   <i type="int" name="NPACO">   256</i>
   <i name="APACO">     16.00000000</i>
  </separator>
  <separator name="symmetry" >
   <i type="int" name="ISYM">     2</i>
   <i name="SYMPREC">      0.00001000</i>
  </separator>
  <separator name="dos" >
   <i type="int" name="LORBIT">     0</i>
   <v name="RWIGS">     -1.00000000     -1.00000000     -1.00000000     -1.00000000     -1.00000000</v>
   <i type="int" name="NEDOS">   301</i>
   <i name="EMIN">     10.00000000</i>
   <i name="EMAX">    -10.00000000</i>
   <i name="EFERMI">      0.00000000</i>
  </separator>
  <separator name="writing" >
   <i type="int" name="NWRITE">     2</i>
   <i type="logical" name="LWAVE"> F  </i>
   <i type="logical" name="LDOWNSAMPLE"> F  </i>
   <i type="logical" name="LCHARG"> F  </i>
   <i type="logical" name="LPARD"> F  </i>
   <i type="logical" name="LVTOT"> F  </i>
   <i type="logical" name="LVHAR"> F  </i>
   <i type="logical" name="LELF"> F  </i>
   <i type="logical" name="LOPTICS"> F  </i>
   <v name="STM">      0.00000000      0.00000000      0.00000000      0.00000000      0.00000000      0.00000000      0.00000000</v>
  </separator>
  <separator name="performance" >
   <i type="int" name="NPAR">    28</i>
   <i type="int" name="NSIM">     4</i>
   <i type="int" name="NBLK">    -1</i>
   <i type="logical" name="LPLANE"> T  </i>
   <i type="logical" name="LSCALAPACK"> T  </i>
   <i type="logical" name="LSCAAWARE"> F  </i>
   <i type="logical" name="LSCALU"> F  </i>
   <i type="logical" name="LASYNC"> F  </i>
   <i type="logical" name="LORBITALREAL"> F  </i>
  </separator>
  <separator name="miscellaneous" >
   <i type="int" name="IDIOT">     3</i>
   <i type="int" name="ISPECIAL">     0</i>
   <i type="logical" name="LMUSIC"> F  </i>
   <v name="POMASS">      7.01000000     24.30500000    208.98000000     32.06600000     16.00000000</v>
   <v name="DARWINR">      0.00000000      0.00000000      0.00000000      0.00000000      0.00000000</v>
   <v name="DARWINV">      1.00000000      1.00000000      1.00000000      1.00000000      1.00000000</v>
   <i type="logical" name="LCORR"> T  </i>
  </separator>
  <i type="logical" name="GGA_COMPAT"> T  </i>
  <i type="logical" name="LBERRY"> F  </i>
  <i type="int" name="ICORELEVEL">     0</i>
  <i type="logical" name="LDAU"> F  </i>
  <i type="int" name="I_CONSTRAINED_M">     0</i>
  <separator name="electronic exchange-correlation" >
   <i type="string" name="GGA">--</i>
   <i type="int" name="VOSKOWN">     0</i>
   <i type="logical" name="LHFCALC"> F  </i>
   <i type="string" name="PRECFOCK"></i>
   <i type="logical" name="LSYMGRAD"> F  </i>
   <i type="logical" name="LHFONE"> F  </i>
   <i type="logical" name="LRHFCALC"> F  </i>
   <i type="logical" name="LTHOMAS"> F  </i>
   <i type="logical" name="LMODELHF"> F  </i>
   <i name="ENCUT4O">     -1.00000000</i>
   <i type="int" name="EXXOEP">     0</i>
   <i type="int" name="FOURORBIT">     0</i>
   <i name="AEXX">      0.00000000</i>
   <i name="HFALPHA">      0.00000000</i>
   <i name="MCALPHA">      0.00000000</i>
   <i name="ALDAX">      1.00000000</i>
   <i name="AGGAX">      1.00000000</i>
   <i name="ALDAC">      1.00000000</i>
   <i name="AGGAC">      1.00000000</i>
   <i type="int" name="NKREDX">     1</i>
   <i type="int" name="NKREDY">     1</i>
   <i type="int" name="NKREDZ">     1</i>
   <i type="logical" name="SHIFTRED"> F  </i>
   <i type="logical" name="ODDONLY"> F  </i>
   <i type="logical" name="EVENONLY"> F  </i>
   <i type="int" name="LMAXFOCK">     0</i>
   <i type="int" name="NMAXFOCKAE">     0</i>
   <i type="logical" name="LFOCKAEDFT"> F  </i>
   <i name="HFSCREEN">      0.00000000</i>
   <i name="HFSCREENC">      0.00000000</i>
   <i type="int" name="NBANDSGWLOW">     0</i>
  </separator>
  <separator name="vdW DFT" >
   <i type="logical" name="LUSE_VDW"> F  </i>
   <i name="Zab_VDW">     -0.84910000</i>
   <i name="PARAM1">      0.12340000</i>
   <i name="PARAM2">      1.00000000</i>
   <i name="PARAM3">      0.00000000</i>
  </separator>
  <separator name="model GW" >
   <i type="int" name="MODEL_GW">     0</i>
   <i name="MODEL_EPS0">     12.17134107</i>
   <i name="MODEL_ALPHA">      1.00000000</i>
  </separator>
  <separator name="linear response parameters" >
   <i type="logical" name="LEPSILON"> F  </i>
   <i type="logical" name="LRPA"> F  </i>
   <i type="logical" name="LNABLA"> F  </i>
   <i type="logical" name="LVEL"> F  </i>
   <i type="int" name="KINTER">     0</i>
   <i name="CSHIFT">      0.10000000</i>
   <i name="OMEGAMAX">     -1.00000000</i>
   <i name="DEG_THRESHOLD">      0.00200000</i>
   <i name="RTIME">     -0.10000000</i>
   <i name="WPLASMAI">      0.00000000</i>
   <v name="DFIELD">      0.00000000      0.00000000      0.00000000</v>
   <v name="WPLASMA">      0.00000000      0.00000000      0.00000000      0.00000000      0.00000000      0.00000000      0.00000000      0.00000000      0.00000000</v>
  </separator>
  <separator name="orbital magnetization" >
   <i type="logical" name="NUCIND"> F  </i>
   <v name="MAGPOS">      0.00000000      0.00000000      0.00000000</v>
   <i type="logical" name="LNICSALL"> T  </i>
   <i type="logical" name="ORBITALMAG"> F  </i>
   <i type="logical" name="LMAGBLOCH"> F  </i>
   <i type="logical" name="LCHIMAG"> F  </i>
   <i type="logical" name="LGAUGE"> T  </i>
   <i type="int" name="MAGATOM">     0</i>
   <v name="MAGDIPOL">      0.00000000      0.00000000      0.00000000</v>
   <v name="AVECCONST">      0.00000000      0.00000000      0.00000000</v>
  </separator>
  <separator name="response functions" >
   <i type="logical" name="LADDER"> F  </i>
   <i type="logical" name="LRPAFORCE"> F  </i>
   <i type="logical" name="LFXC"> F  </i>
   <i type="logical" name="LHARTREE"> T  </i>
   <i type="int" name="IBSE">     0</i>
   <v type="int" name="KPOINT">    -1     0     0     0</v>
   <i type="logical" name="LTCTE"> F  </i>
   <i type="logical" name="LTETE"> F  </i>
   <i type="logical" name="LTRIPLET"> F  </i>
   <i type="logical" name="LFXCEPS"> F  </i>
   <i type="logical" name="LFXHEG"> F  </i>
   <i type="int" name="NATURALO">     2</i>
   <i type="logical" name="L2ORDER"> F  </i>
   <i type="logical" name="LMP2LT"> F  </i>
   <i type="logical" name="LUSEW"> F  </i>
   <i name="ENCUTGW">     -2.00000000</i>
   <i name="ENCUTGWSOFT">     -2.00000000</i>
   <i name="ENCUTLF">     -1.00000000</i>
   <i type="int" name="LMAXMP2">    -1</i>
   <i name="SCISSOR">      0.00000000</i>
   <i type="int" name="NOMEGA">     0</i>
   <i type="int" name="NOMEGAR">     0</i>
   <i type="int" name="NBANDSGW">    -1</i>
   <i type="int" name="NBANDSO">    -1</i>
   <i type="int" name="NBANDSV">    -1</i>
   <i type="int" name="NELM">     1</i>
   <i type="int" name="NELMHF">     1</i>
   <i type="int" name="DIM">     3</i>
   <i type="int" name="ANTIRES">     0</i>
   <i name="OMEGAMAX">    -30.00000000</i>
   <i name="OMEGAMIN">    -30.00000000</i>
   <i name="OMEGATL">   -200.00000000</i>
   <i type="int" name="OMEGAGRID">   140</i>
   <i name="CSHIFT">     -0.10000000</i>
   <i type="logical" name="SELFENERGY"> F  </i>
   <i type="logical" name="LSPECTRAL"> F  </i>
   <i type="logical" name="LSPECTRALGW"> F  </i>
   <i type="logical" name="LSINGLES"> F  </i>
   <i type="logical" name="LFERMIGW"> F  </i>
   <i type="logical" name="ODDONLYGW"> F  </i>
   <i type="logical" name="EVENONLYGW"> F  </i>
   <i type="int" name="NKREDLFX">     1</i>
   <i type="int" name="NKREDLFY">     1</i>
   <i type="int" name="NKREDLFZ">     1</i>
   <i type="int" name="MAXMEM">  2800</i>
   <i type="int" name="TELESCOPE">     0</i>
   <i type="int" name="TAUPAR">     1</i>
   <i type="int" name="OMEGAPAR">    -1</i>
   <i name="LAMBDA">      1.00000000</i>
  </separator>
  <separator name="External order field" >
   <i name="OFIELD_KAPPA">      0.00000000</i>
   <v name="OFIELD_K">      0.00000000      0.00000000      0.00000000</v>
   <i name="OFIELD_Q6_NEAR">      0.00000000</i>
   <i name="OFIELD_Q6_FAR">      0.00000000</i>
   <i name="OFIELD_A">      0.00000000</i>
  </separator>
 </parameters>
 <atominfo>
  <atoms>      59 </atoms>
  <types>       5 </types>
  <array name="atoms" >
   <dimension dim="1">ion</dimension>
   <field type="string">element</field>
   <field type="int">atomtype</field>
   <set>
    <rc><c>Li</c><c>   1</c></rc>
    <rc><c>Li</c><c>   1</c></rc>
    <rc><c>Li</c><c>   1</c></rc>
    <rc><c>Li</c><c>   1</c></rc>
    <rc><c>Li</c><c>   1</c></rc>
    <rc><c>Li</c><c>   1</c></rc>
    <rc><c>Mg</c><c>   2</c></rc>
    <rc><c>Mg</c><c>   2</c></rc>
    <rc><c>Mg</c><c>   2</c></rc>
    <rc><c>Mg</c><c>   2</c></rc>
    <rc><c>Mg</c><c>   2</c></rc>
    <rc><c>Bi</c><c>   3</c></rc>
    <rc><c>Bi</c><c>   3</c></rc>
    <rc><c>Bi</c><c>   3</c></rc>
    <rc><c>Bi</c><c>   3</c></rc>
    <rc><c>Bi</c><c>   3</c></rc>
    <rc><c>Bi</c><c>   3</c></rc>
    <rc><c>Bi</c><c>   3</c></rc>
    <rc><c>Bi</c><c>   3</c></rc>
    <rc><c>Bi</c><c>   3</c></rc>
    <rc><c>Bi</c><c>   3</c></rc>
    <rc><c>Bi</c><c>   3</c></rc>
    <rc><c>Bi</c><c>   3</c></rc>
    <rc><c>Bi</c><c>   3</c></rc>
    <rc><c>Bi</c><c>   3</c></rc>
    <rc><c>Bi</c><c>   3</c></rc>
    <rc><c>Bi</c><c>   3</c></rc>
    <rc><c>S </c><c>   4</c></rc>
    <rc><c>S </c><c>   4</c></rc>
    <rc><c>S </c><c>   4</c></rc>
    <rc><c>S </c><c>   4</c></rc>
    <rc><c>S </c><c>   4</c></rc>
    <rc><c>S </c><c>   4</c></rc>
    <rc><c>S </c><c>   4</c></rc>
    <rc><c>S </c><c>   4</c></rc>
    <rc><c>S </c><c>   4</c></rc>
    <rc><c>S </c><c>   4</c></rc>
    <rc><c>S </c><c>   4</c></rc>
    <rc><c>S </c><c>   4</c></rc>
    <rc><c>S </c><c>   4</c></rc>
    <rc><c>S </c><c>   4</c></rc>
    <rc><c>S </c><c>   4</c></rc>
    <rc><c>S </c><c>   4</c></rc>
    <rc><c>O </c><c>   5</c></rc>
    <rc><c>O </c><c>   5</c></rc>
    <rc><c>O </c><c>   5</c></rc>
    <rc><c>O </c><c>   5</c></rc>
    <rc><c>O </c><c>   5</c></rc>
    <rc><c>O </c><c>   5</c></rc>
    <rc><c>O </c><c>   5</c></rc>
    <rc><c>O </c><c>   5</c></rc>
    <rc><c>O </c><c>   5</c></rc>
    <rc><c>O </c><c>   5</c></rc>
    <rc><c>O </c><c>   5</c></rc>
    <rc><c>O </c><c>   5</c></rc>
    <rc><c>O </c><c>   5</c></rc>
    <rc><c>O </c><c>   5</c></rc>
    <rc><c>O </c><c>   5</c></rc>
    <rc><c>O </c><c>   5</c></rc>
   </set>
  </array>
  <array name="atomtypes" >
   <dimension dim="1">type</dimension>
   <field type="int">atomspertype</field>
   <field type="string">element</field>
   <field>mass</field>
   <field>valence</field>
   <field type="string">pseudopotential</field>
   <set>
    <rc><c>   6</c><c>Li</c><c>      7.01000000</c><c>      3.00000000</c><c>  PAW_PBE Li_sv 10Sep2004               </c></rc>
    <rc><c>   5</c><c>Mg</c><c>     24.30500000</c><c>      2.00000000</c><c>  PAW_PBE Mg 13Apr2007                  </c></rc>
    <rc><c>  16</c><c>Bi</c><c>    208.98000000</c><c>     15.00000000</c><c>  PAW_PBE Bi_d 06Sep2000                </c></rc>
    <rc><c>  16</c><c>S </c><c>     32.06600000</c><c>      6.00000000</c><c>  PAW_PBE S 06Sep2000                   </c></rc>
    <rc><c>  16</c><c>O </c><c>     16.00000000</c><c>      6.00000000</c><c>  PAW_PBE O 08Apr2002                   </c></rc>
   </set>
  </array>
 </atominfo>
 <structure name="initialpos" >
  <crystal>
   <varray name="basis" >
    <v>      11.17850000       0.00000000       0.00000000 </v>
    <v>       0.00000000       9.57460000       0.00000000 </v>
    <v>       0.00000000       0.00000000      11.18240000 </v>
   </varray>
   <i name="volume">   1196.84853820 </i>
   <varray name="rec_basis" >
    <v>       0.08945744       0.00000000       0.00000000 </v>
    <v>       0.00000000       0.10444301       0.00000000 </v>
    <v>       0.00000000       0.00000000       0.08942624 </v>
   </varray>
  </crystal>
  <varray name="positions" >
   <v>       0.37539000       0.00017000       0.43687000 </v>
   <v>       0.12461000       0.99984000       0.18687000 </v>
   <v>       0.37461000       0.00017000       0.18687000 </v>
   <v>       0.62461000       0.99984000       0.18687000 </v>
   <v>       0.87461000       0.00017000       0.18687000 </v>
   <v>       0.62539000       0.99984000       0.93687000 </v>
   <v>       0.87539000       0.00017000       0.43687000 </v>
   <v>       0.37539000       0.00017000       0.93687000 </v>
   <v>       0.12461000       0.99984000       0.68687000 </v>
   <v>       0.87539000       0.00017000       0.93687000 </v>
   <v>       0.62461000       0.99984000       0.68687000 </v>
   <v>       0.00013000       0.29519000       0.06281000 </v>
   <v>       0.25013000       0.70481000       0.06281000 </v>
   <v>       0.24987000       0.29519000       0.31282000 </v>
   <v>       0.49987000       0.70481000       0.31282000 </v>
   <v>       0.50013000       0.29519000       0.06281000 </v>
   <v>       0.75013000       0.70481000       0.06281000 </v>
   <v>       0.74987000       0.29519000       0.31282000 </v>
   <v>       0.99987000       0.70481000       0.31282000 </v>
   <v>       0.00013000       0.29519000       0.56281000 </v>
   <v>       0.25013000       0.70481000       0.56281000 </v>
   <v>       0.24987000       0.29519000       0.81282000 </v>
   <v>       0.49987000       0.70481000       0.81282000 </v>
   <v>       0.50013000       0.29519000       0.56281000 </v>
   <v>       0.75013000       0.70481000       0.56281000 </v>
   <v>       0.74987000       0.29519000       0.81282000 </v>
   <v>       0.99987000       0.70481000       0.81282000 </v>
   <v>       0.25005000       0.32677000       0.06286000 </v>
   <v>       0.00005000       0.67323000       0.06286000 </v>
   <v>       0.49995000       0.32677000       0.31286000 </v>
   <v>       0.24995000       0.67323000       0.31286000 </v>
   <v>       0.75005000       0.32677000       0.06286000 </v>
   <v>       0.50005000       0.67323000       0.06286000 </v>
   <v>       0.99995000       0.32677000       0.31286000 </v>
   <v>       0.74995000       0.67323000       0.31286000 </v>
   <v>       0.25005000       0.32677000       0.56286000 </v>
   <v>       0.00005000       0.67323000       0.56286000 </v>
   <v>       0.49995000       0.32677000       0.81286000 </v>
   <v>       0.24995000       0.67323000       0.81286000 </v>
   <v>       0.75005000       0.32677000       0.56286000 </v>
   <v>       0.50005000       0.67323000       0.56286000 </v>
   <v>       0.99995000       0.32677000       0.81286000 </v>
   <v>       0.74995000       0.67323000       0.81286000 </v>
   <v>       0.49987000       0.07798000       0.06246000 </v>
   <v>       0.24987000       0.92202000       0.06246000 </v>
   <v>       0.25013000       0.07798000       0.31246000 </v>
   <v>       0.00013000       0.92202000       0.31246000 </v>
   <v>       0.99987000       0.07798000       0.06246000 </v>
   <v>       0.74987000       0.92202000       0.06246000 </v>
   <v>       0.75013000       0.07798000       0.31246000 </v>
   <v>       0.50013000       0.92202000       0.31246000 </v>
   <v>       0.49987000       0.07798000       0.56246000 </v>
   <v>       0.24987000       0.92202000       0.56246000 </v>
   <v>       0.25013000       0.07798000       0.81246000 </v>
   <v>       0.00013000       0.92202000       0.81246000 </v>
   <v>       0.99987000       0.07798000       0.56246000 </v>
   <v>       0.74987000       0.92202000       0.56246000 </v>
   <v>       0.75013000       0.07798000       0.81246000 </v>
   <v>       0.50013000       0.92202000       0.81246000 </v>
  </varray>
 </structure>
 <calculation>
  <scstep>
   <time name="dav">   60.61   60.82</time>
   <time name="total">   60.70   60.90</time>
   <energy>
    <i name="alphaZ">   1060.66890660 </i>
    <i name="ewald"> -30400.35528711 </i>
    <i name="hartreedc"> -12718.58143018 </i>
    <i name="XCdc">   1247.15095934 </i>
    <i name="pawpsdc">  36635.26894311 </i>
    <i name="pawaedc"> -35972.74895369 </i>
    <i name="eentropy">      0.00000000 </i>
    <i name="bandstr">   1872.88547735 </i>
    <i name="atom">  44026.03258983 </i>
    <i name="e_fr_energy">   5750.32120525 </i>
    <i name="e_wo_entrp">   5750.32120525 </i>
    <i name="e_0_energy">   5750.32120525 </i>
   </energy>
  </scstep>
  <scstep>
   <time name="dav">   60.71   61.03</time>
   <time name="total">   60.72   61.04</time>
   <energy>
    <i name="e_fr_energy">    768.36028796 </i>
    <i name="e_wo_entrp">    768.36028796 </i>
    <i name="e_0_energy">    768.36028796 </i>
   </energy>
  </scstep>
  <scstep>
   <time name="dav">   70.20   70.49</time>
   <time name="total">   70.21   70.49</time>
   <energy>
    <i name="e_fr_energy">   -242.69414191 </i>
    <i name="e_wo_entrp">   -242.69414191 </i>
    <i name="e_0_energy">   -242.69414191 </i>
   </energy>
  </scstep>
  <scstep>
   <time name="dav">   73.09   73.33</time>
   <time name="total">   73.09   73.33</time>
   <energy>
    <i name="e_fr_energy">   -336.92584468 </i>
    <i name="e_wo_entrp">   -336.92584468 </i>
    <i name="e_0_energy">   -336.92584468 </i>
   </energy>
  </scstep>
  <scstep>
   <time name="dav">   95.58   95.92</time>
   <time name="total">   96.29   96.64</time>
   <energy>
    <i name="e_fr_energy">   -344.18111774 </i>
    <i name="e_wo_entrp">   -344.18111774 </i>
    <i name="e_0_energy">   -344.18111774 </i>
   </energy>
  </scstep>
  <scstep>
   <time name="dav">   86.40   86.71</time>
   <time name="total">   87.23   87.54</time>
   <energy>
    <i name="e_fr_energy">   -288.47497272 </i>
    <i name="e_wo_entrp">   -288.47497272 </i>
    <i name="e_0_energy">   -288.47497272 </i>
   </energy>
  </scstep>
  <scstep>
   <time name="dav">   65.75   65.99</time>
   <time name="total">   66.52   66.78</time>
   <energy>
    <i name="e_fr_energy">   -290.83305380 </i>
    <i name="e_wo_entrp">   -290.83305380 </i>
    <i name="e_0_energy">   -290.83305380 </i>
   </energy>
  </scstep>
  <scstep>
   <time name="dav">   76.21   76.73</time>
   <time name="total">   76.99   77.51</time>
   <energy>
    <i name="e_fr_energy">   -289.83261920 </i>
    <i name="e_wo_entrp">   -289.83261920 </i>
    <i name="e_0_energy">   -289.83261920 </i>
   </energy>
  </scstep>
  <scstep>
   <time name="dav">   75.13   75.40</time>
   <time name="total">   75.91   76.18</time>
   <energy>
    <i name="e_fr_energy">   -289.31867469 </i>
    <i name="e_wo_entrp">   -289.31867469 </i>
    <i name="e_0_energy">   -289.31867469 </i>
   </energy>
  </scstep>
  <scstep>
   <time name="dav">   74.48   74.77</time>
   <time name="total">   75.27   75.55</time>
   <energy>
    <i name="e_fr_energy">   -289.34340079 </i>
    <i name="e_wo_entrp">   -289.34340079 </i>
    <i name="e_0_energy">   -289.34340079 </i>
   </energy>
  </scstep>
  <scstep>
   <time name="dav">   80.54   80.84</time>
   <time name="total">   81.32   81.62</time>
   <energy>
    <i name="e_fr_energy">   -289.34817026 </i>
    <i name="e_wo_entrp">   -289.34817026 </i>
    <i name="e_0_energy">   -289.34817026 </i>
   </energy>
  </scstep>
  <scstep>
   <time name="dav">   76.52   76.96</time>
   <time name="total">   77.30   77.74</time>
   <energy>
    <i name="e_fr_energy">   -289.35089266 </i>
    <i name="e_wo_entrp">   -289.35089266 </i>
    <i name="e_0_energy">   -289.35089266 </i>
   </energy>
  </scstep>
  <scstep>
   <time name="dav">   73.62   74.57</time>
   <time name="total">   74.41   75.36</time>
   <energy>
    <i name="e_fr_energy">   -289.35237469 </i>
    <i name="e_wo_entrp">   -289.35237469 </i>
    <i name="e_0_energy">   -289.35237469 </i>
   </energy>
  </scstep>
  <scstep>
   <time name="dav">   80.35   80.51</time>
   <time name="total">   81.14   81.30</time>
   <energy>
    <i name="e_fr_energy">   -289.35260009 </i>
    <i name="e_wo_entrp">   -289.35260009 </i>
    <i name="e_0_energy">   -289.35260009 </i>
   </energy>
  </scstep>
  <scstep>
   <time name="dav">   79.22   79.24</time>
   <time name="total">   80.00   80.03</time>
   <energy>
    <i name="e_fr_energy">   -289.35263136 </i>
    <i name="e_wo_entrp">   -289.35263136 </i>
    <i name="e_0_energy">   -289.35263136 </i>
   </energy>
  </scstep>
  <scstep>
   <time name="dav">   67.41   67.44</time>
   <time name="total">   68.19   68.23</time>
   <energy>
    <i name="e_fr_energy">   -289.35265256 </i>
    <i name="e_wo_entrp">   -289.35265256 </i>
    <i name="e_0_energy">   -289.35265256 </i>
   </energy>
  </scstep>
  <scstep>
   <time name="dav">   71.56   71.58</time>
   <time name="total">   72.35   72.37</time>
   <energy>
    <i name="e_fr_energy">   -289.35265529 </i>
    <i name="e_wo_entrp">   -289.35265529 </i>
    <i name="e_0_energy">   -289.35265529 </i>
   </energy>
  </scstep>
  <scstep>
   <time name="dav">   59.50   59.52</time>
   <time name="total">   59.57   59.59</time>
   <energy>
    <i name="alphaZ">   1060.66890660 </i>
    <i name="ewald"> -30400.35528711 </i>
    <i name="hartreedc"> -12959.63608030 </i>
    <i name="XCdc">   1271.99233891 </i>
    <i name="pawpsdc">  43669.84220437 </i>
    <i name="pawaedc"> -42980.79045022 </i>
    <i name="eentropy">      0.00000000 </i>
    <i name="bandstr">  -3977.10687794 </i>
    <i name="atom">  44026.03258983 </i>
    <i name="e_fr_energy">   -289.35265587 </i>
    <i name="e_wo_entrp">   -289.35265587 </i>
    <i name="e_0_energy">   -289.35265587 </i>
   </energy>
  </scstep>
  <structure>
   <crystal>
    <varray name="basis" >
     <v>      11.17850000       0.00000000       0.00000000 </v>
     <v>       0.00000000       9.57460000       0.00000000 </v>
     <v>       0.00000000       0.00000000      11.18240000 </v>
    </varray>
    <i name="volume">   1196.84853820 </i>
    <varray name="rec_basis" >
     <v>       0.08945744       0.00000000       0.00000000 </v>
     <v>       0.00000000       0.10444301       0.00000000 </v>
     <v>       0.00000000       0.00000000       0.08942624 </v>
    </varray>
   </crystal>
   <varray name="positions" >
    <v>       0.37539000       0.00017000       0.43687000 </v>
    <v>       0.12461000       0.99984000       0.18687000 </v>
    <v>       0.37461000       0.00017000       0.18687000 </v>
    <v>       0.62461000       0.99984000       0.18687000 </v>
    <v>       0.87461000       0.00017000       0.18687000 </v>
    <v>       0.62539000       0.99984000       0.93687000 </v>
    <v>       0.87539000       0.00017000       0.43687000 </v>
    <v>       0.37539000       0.00017000       0.93687000 </v>
    <v>       0.12461000       0.99984000       0.68687000 </v>
    <v>       0.87539000       0.00017000       0.93687000 </v>
    <v>       0.62461000       0.99984000       0.68687000 </v>
    <v>       0.00013000       0.29519000       0.06281000 </v>
    <v>       0.25013000       0.70481000       0.06281000 </v>
    <v>       0.24987000       0.29519000       0.31282000 </v>
    <v>       0.49987000       0.70481000       0.31282000 </v>
    <v>       0.50013000       0.29519000       0.06281000 </v>
    <v>       0.75013000       0.70481000       0.06281000 </v>
    <v>       0.74987000       0.29519000       0.31282000 </v>
    <v>       0.99987000       0.70481000       0.31282000 </v>
    <v>       0.00013000       0.29519000       0.56281000 </v>
    <v>       0.25013000       0.70481000       0.56281000 </v>
    <v>       0.24987000       0.29519000       0.81282000 </v>
    <v>       0.49987000       0.70481000       0.81282000 </v>
    <v>       0.50013000       0.29519000       0.56281000 </v>
    <v>       0.75013000       0.70481000       0.56281000 </v>
    <v>       0.74987000       0.29519000       0.81282000 </v>
    <v>       0.99987000       0.70481000       0.81282000 </v>
    <v>       0.25005000       0.32677000       0.06286000 </v>
    <v>       0.00005000       0.67323000       0.06286000 </v>
    <v>       0.49995000       0.32677000       0.31286000 </v>
    <v>       0.24995000       0.67323000       0.31286000 </v>
    <v>       0.75005000       0.32677000       0.06286000 </v>
    <v>       0.50005000       0.67323000       0.06286000 </v>
    <v>       0.99995000       0.32677000       0.31286000 </v>
    <v>       0.74995000       0.67323000       0.31286000 </v>
    <v>       0.25005000       0.32677000       0.56286000 </v>
    <v>       0.00005000       0.67323000       0.56286000 </v>
    <v>       0.49995000       0.32677000       0.81286000 </v>
    <v>       0.24995000       0.67323000       0.81286000 </v>
    <v>       0.75005000       0.32677000       0.56286000 </v>
    <v>       0.50005000       0.67323000       0.56286000 </v>
    <v>       0.99995000       0.32677000       0.81286000 </v>
    <v>       0.74995000       0.67323000       0.81286000 </v>
    <v>       0.49987000       0.07798000       0.06246000 </v>
    <v>       0.24987000       0.92202000       0.06246000 </v>
    <v>       0.25013000       0.07798000       0.31246000 </v>
    <v>       0.00013000       0.92202000       0.31246000 </v>
    <v>       0.99987000       0.07798000       0.06246000 </v>
    <v>       0.74987000       0.92202000       0.06246000 </v>
    <v>       0.75013000       0.07798000       0.31246000 </v>
    <v>       0.50013000       0.92202000       0.31246000 </v>
    <v>       0.49987000       0.07798000       0.56246000 </v>
    <v>       0.24987000       0.92202000       0.56246000 </v>
    <v>       0.25013000       0.07798000       0.81246000 </v>
    <v>       0.00013000       0.92202000       0.81246000 </v>
    <v>       0.99987000       0.07798000       0.56246000 </v>
    <v>       0.74987000       0.92202000       0.56246000 </v>
    <v>       0.75013000       0.07798000       0.81246000 </v>
    <v>       0.50013000       0.92202000       0.81246000 </v>
   </varray>
  </structure>
  <varray name="forces" >
   <v>      -0.03957024      -0.00285391       0.32697715 </v>
   <v>       0.12597103       0.06340901       0.14947751 </v>
   <v>      -0.20373897      -0.06863420       0.71239559 </v>
   <v>      -0.10645636      -0.06368039       0.67152176 </v>
   <v>       0.20352085       0.06477225       0.25783064 </v>
   <v>      -0.04226497       0.00090900       0.16237235 </v>
   <v>       0.03988594      -0.00538732       0.65717932 </v>
   <v>      -1.11540602      -0.00323412      -0.59895623 </v>
   <v>       0.26046122      -0.10609933      -0.27336412 </v>
   <v>       1.06174778      -0.00687080      -0.60471914 </v>
   <v>      -0.20455239       0.11400762      -1.29713093 </v>
   <v>       0.36379034       0.05448474       0.12120452 </v>
   <v>      -0.21432580      -0.01934933       0.18884984 </v>
   <v>      -0.03802753      -1.01060340       0.27035997 </v>
   <v>      -0.07825048       0.99429599       0.30065958 </v>
   <v>      -0.13318203       1.08605935       0.38076000 </v>
   <v>      -0.04054797      -1.09845376       0.30808488 </v>
   <v>      -0.26100553       0.01679878       0.20031292 </v>
   <v>       0.40952342      -0.01188956       0.16330126 </v>
   <v>       0.19521353      -0.07663744      -0.17312185 </v>
   <v>       0.11961423       1.03457456      -0.28552741 </v>
   <v>      -0.02642889      -0.07202080      -0.19254682 </v>
   <v>      -0.32534974      -1.05384677      -0.37461229 </v>
   <v>      -0.27018112      -0.99779337      -0.32254777 </v>
   <v>      -0.06712301       0.07384062      -0.21279720 </v>
   <v>       0.17445723       1.04298186      -0.31131371 </v>
   <v>       0.19475242       0.04599952      -0.13247792 </v>
   <v>       0.15453225       0.13673001      -0.18371161 </v>
   <v>      -0.23375560      -0.09598411      -0.09083061 </v>
   <v>       0.16615835       0.20479279      -0.29879307 </v>
   <v>      -0.08962242      -0.24425683      -0.20702698 </v>
   <v>      -0.03904556       0.07589608      -0.19233813 </v>
   <v>       0.12140969      -0.11391240      -0.28407495 </v>
   <v>      -0.21939442       0.17198933      -0.06597639 </v>
   <v>       0.14110887      -0.13882116      -0.15963392 </v>
   <v>      -0.14524620       0.18219518       0.20888185 </v>
   <v>      -0.16107332      -0.13148022       0.06184613 </v>
   <v>       0.18147547       0.04916849       0.26691975 </v>
   <v>       0.09982315      -0.09397263       0.17838961 </v>
   <v>       0.07975500       0.09613757       0.15948904 </v>
   <v>       0.21987305      -0.14056035       0.31451186 </v>
   <v>      -0.17524314       0.05470792       0.09805023 </v>
   <v>      -0.10071867      -0.01466512       0.19025762 </v>
   <v>      -0.30830355      -0.86554621      -0.72220293 </v>
   <v>       1.23318041      -0.00809196      -0.04013598 </v>
   <v>       0.52374533       0.88783050      -0.75345594 </v>
   <v>      -1.22153220      -0.06372568      -0.21181498 </v>
   <v>      -1.28484180      -0.05302905       0.03584938 </v>
   <v>       0.41152481       0.91929133      -0.66152007 </v>
   <v>       1.11700788       0.01854623      -0.29197266 </v>
   <v>      -0.44576065      -0.82571411      -0.83809896 </v>
   <v>       0.65013794       0.94226151       0.71812881 </v>
   <v>      -0.55664045      -1.01711565       0.62003091 </v>
   <v>       0.09840804       0.27032861       0.15228952 </v>
   <v>      -0.18429112      -0.21839304       0.11803493 </v>
   <v>      -0.12231208       0.32890804       0.03922865 </v>
   <v>       0.04270813      -0.27146493       0.13243676 </v>
   <v>      -0.70814712      -0.79451161       0.78538132 </v>
   <v>       0.77255306       0.75768262       0.82968892 </v>
  </varray>
  <varray name="stress" >
   <v>     -10.66780795       0.00592191       0.01695288 </v>
   <v>       0.00592185     -13.11317337       0.05254612 </v>
   <v>       0.01695288       0.05254602      -8.22110778 </v>
  </varray>
  <energy>
   <i name="e_fr_energy">   -301.98901350 </i>
   <i name="e_wo_entrp">   -301.98901350 </i>
   <i name="e_0_energy">      0.00000000 </i>
  </energy>
  <time name="totalsc"> 1447.10 1452.20</time>
  <eigenvalues>
   <array>
    <dimension dim="1">band</dimension>
    <dimension dim="2">kpoint</dimension>
    <dimension dim="3">spin</dimension>
    <field>eigene</field>
    <field>occ</field>
    <set>
     <set comment="spin 1">
      <set comment="kpoint 1">
       <r>  -40.7820    1.0000 </r>
       <r>  -40.1407    1.0000 </r>
       <r>  -40.0236    1.0000 </r>
       <r>  -39.6895    1.0000 </r>
       <r>  -39.5701    1.0000 </r>
       <r>  -38.9798    1.0000 </r>
       <r>  -19.0370    1.0000 </r>
       <r>  -19.0350    1.0000 </r>
       <r>  -18.9660    1.0000 </r>
       <r>  -18.9634    1.0000 </r>
       <r>  -18.9615    1.0000 </r>
       <r>  -18.9592    1.0000 </r>
       <r>  -18.9523    1.0000 </r>
       <r>  -18.9497    1.0000 </r>
       <r>  -18.8889    1.0000 </r>
       <r>  -18.8885    1.0000 </r>
       <r>  -18.8811    1.0000 </r>
       <r>  -18.8806    1.0000 </r>
       <r>  -18.8617    1.0000 </r>
       <r>  -18.8579    1.0000 </r>
       <r>  -18.8515    1.0000 </r>
       <r>  -18.8431    1.0000 </r>
       <r>  -18.7929    1.0000 </r>
       <r>  -18.7876    1.0000 </r>
       <r>  -18.7740    1.0000 </r>
       <r>  -18.7704    1.0000 </r>
       <r>  -18.7532    1.0000 </r>
       <r>  -18.7421    1.0000 </r>
       <r>  -18.7387    1.0000 </r>
       <r>  -18.7367    1.0000 </r>
       <r>  -18.7269    1.0000 </r>
       <r>  -18.7183    1.0000 </r>
       <r>  -18.6753    1.0000 </r>
       <r>  -18.6733    1.0000 </r>
       <r>  -18.6604    1.0000 </r>
       <r>  -18.6590    1.0000 </r>
       <r>  -18.6588    1.0000 </r>
       <r>  -18.6568    1.0000 </r>
       <r>  -18.6469    1.0000 </r>
       <r>  -18.6452    1.0000 </r>
       <r>  -18.6449    1.0000 </r>
       <r>  -18.6437    1.0000 </r>
       <r>  -18.6277    1.0000 </r>
       <r>  -18.6262    1.0000 </r>
       <r>  -18.6050    1.0000 </r>
       <r>  -18.6004    1.0000 </r>
       <r>  -18.5924    1.0000 </r>
       <r>  -18.5921    1.0000 </r>
       <r>  -18.5875    1.0000 </r>
       <r>  -18.5845    1.0000 </r>
       <r>  -18.5826    1.0000 </r>
       <r>  -18.5806    1.0000 </r>
       <r>  -18.5666    1.0000 </r>
       <r>  -18.5577    1.0000 </r>
       <r>  -18.5193    1.0000 </r>
       <r>  -18.5171    1.0000 </r>
       <r>  -18.5066    1.0000 </r>
       <r>  -18.5053    1.0000 </r>
       <r>  -18.4926    1.0000 </r>
       <r>  -18.4906    1.0000 </r>
       <r>  -18.4704    1.0000 </r>
       <r>  -18.4689    1.0000 </r>
       <r>  -18.4497    1.0000 </r>
       <r>  -18.4402    1.0000 </r>
       <r>  -18.4333    1.0000 </r>
       <r>  -18.4306    1.0000 </r>
       <r>  -18.4291    1.0000 </r>
       <r>  -18.4216    1.0000 </r>
       <r>  -18.4169    1.0000 </r>
       <r>  -18.4090    1.0000 </r>
       <r>  -18.3575    1.0000 </r>
       <r>  -18.3555    1.0000 </r>
       <r>  -18.3499    1.0000 </r>
       <r>  -18.3461    1.0000 </r>
       <r>  -18.3415    1.0000 </r>
       <r>  -18.3347    1.0000 </r>
       <r>  -18.2643    1.0000 </r>
       <r>  -18.2631    1.0000 </r>
       <r>  -18.2363    1.0000 </r>
       <r>  -18.2223    1.0000 </r>
       <r>  -18.2086    1.0000 </r>
       <r>  -18.2076    1.0000 </r>
       <r>  -18.1546    1.0000 </r>
       <r>  -18.1468    1.0000 </r>
       <r>  -18.1368    1.0000 </r>
       <r>  -18.1290    1.0000 </r>
       <r>  -13.7266    1.0000 </r>
       <r>  -13.6079    1.0000 </r>
       <r>  -13.5881    1.0000 </r>
       <r>  -13.5013    1.0000 </r>
       <r>  -12.9216    1.0000 </r>
       <r>  -12.8172    1.0000 </r>
       <r>  -12.8075    1.0000 </r>
       <r>  -12.7500    1.0000 </r>
       <r>  -12.6808    1.0000 </r>
       <r>  -12.6779    1.0000 </r>
       <r>  -12.6508    1.0000 </r>
       <r>  -12.5888    1.0000 </r>
       <r>  -12.0554    1.0000 </r>
       <r>  -11.9723    1.0000 </r>
       <r>  -11.9150    1.0000 </r>
       <r>  -11.8672    1.0000 </r>
       <r>   -9.3839    1.0000 </r>
       <r>   -9.0918    1.0000 </r>
       <r>   -8.5715    1.0000 </r>
       <r>   -8.5423    1.0000 </r>
       <r>   -8.5361    1.0000 </r>
       <r>   -8.4802    1.0000 </r>
       <r>   -8.3546    1.0000 </r>
       <r>   -8.3201    1.0000 </r>
       <r>   -8.3176    1.0000 </r>
       <r>   -8.2620    1.0000 </r>
       <r>   -8.0339    1.0000 </r>
       <r>   -8.0202    1.0000 </r>
       <r>   -8.0016    1.0000 </r>
       <r>   -7.9876    1.0000 </r>
       <r>   -7.3786    1.0000 </r>
       <r>   -7.3775    1.0000 </r>
       <r>   -6.4206    1.0000 </r>
       <r>   -6.4176    1.0000 </r>
       <r>   -6.3911    1.0000 </r>
       <r>   -6.3896    1.0000 </r>
       <r>   -5.6063    1.0000 </r>
       <r>   -5.5908    1.0000 </r>
       <r>   -5.4311    1.0000 </r>
       <r>   -5.3223    1.0000 </r>
       <r>   -5.3143    1.0000 </r>
       <r>   -5.2869    1.0000 </r>
       <r>   -5.2372    1.0000 </r>
       <r>   -5.1279    1.0000 </r>
       <r>   -5.0902    1.0000 </r>
       <r>   -5.0692    1.0000 </r>
       <r>   -3.8205    1.0000 </r>
       <r>   -3.6695    1.0000 </r>
       <r>   -1.5628    1.0000 </r>
       <r>   -1.3397    1.0000 </r>
       <r>   -1.1813    1.0000 </r>
       <r>   -1.0236    1.0000 </r>
       <r>   -0.6404    1.0000 </r>
       <r>   -0.5994    1.0000 </r>
       <r>   -0.5507    1.0000 </r>
       <r>   -0.5288    1.0000 </r>
       <r>   -0.2395    1.0000 </r>
       <r>   -0.2295    1.0000 </r>
       <r>   -0.1952    1.0000 </r>
       <r>   -0.1732    1.0000 </r>
       <r>   -0.0979    1.0000 </r>
       <r>   -0.0244    1.0000 </r>
       <r>    0.0312    1.0000 </r>
       <r>    0.1973    1.0000 </r>
       <r>    0.3283    1.0000 </r>
       <r>    0.3942    1.0000 </r>
       <r>    0.4509    1.0000 </r>
       <r>    0.4705    1.0000 </r>
       <r>    0.5100    1.0000 </r>
       <r>    0.5753    1.0000 </r>
       <r>    0.6340    1.0000 </r>
       <r>    0.7279    1.0000 </r>
       <r>    0.7471    1.0000 </r>
       <r>    0.7859    1.0000 </r>
       <r>    0.8471    1.0000 </r>
       <r>    0.8596    1.0000 </r>
       <r>    0.8718    1.0000 </r>
       <r>    0.9590    1.0000 </r>
       <r>    0.9770    1.0000 </r>
       <r>    1.0056    1.0000 </r>
       <r>    1.0177    1.0000 </r>
       <r>    1.0747    1.0000 </r>
       <r>    1.1418    1.0000 </r>
       <r>    1.1843    1.0000 </r>
       <r>    1.1977    1.0000 </r>
       <r>    1.2549    1.0000 </r>
       <r>    1.3139    1.0000 </r>
       <r>    1.3234    1.0000 </r>
       <r>    1.4833    1.0000 </r>
       <r>    1.5277    1.0000 </r>
       <r>    1.5686    1.0000 </r>
       <r>    1.6032    1.0000 </r>
       <r>    1.6779    1.0000 </r>
       <r>    1.7015    1.0000 </r>
       <r>    1.7209    1.0000 </r>
       <r>    1.8060    1.0000 </r>
       <r>    1.8264    1.0000 </r>
       <r>    1.8465    1.0000 </r>
       <r>    1.8840    1.0000 </r>
       <r>    2.0011    1.0000 </r>
       <r>    2.0916    1.0000 </r>
       <r>    2.1421    1.0000 </r>
       <r>    2.2097    1.0000 </r>
       <r>    2.2625    1.0000 </r>
       <r>    2.3438    1.0000 </r>
       <r>    2.3980    1.0000 </r>
       <r>    2.4558    1.0000 </r>
       <r>    2.4947    1.0000 </r>
       <r>    2.5273    1.0000 </r>
       <r>    2.5370    1.0000 </r>
       <r>    2.5399    1.0000 </r>
       <r>    2.5547    1.0000 </r>
       <r>    2.5889    1.0000 </r>
       <r>    2.6192    1.0000 </r>
       <r>    2.6673    1.0000 </r>
       <r>    2.6989    1.0000 </r>
       <r>    2.7273    1.0000 </r>
       <r>    2.7497    1.0000 </r>
       <r>    2.7918    1.0000 </r>
       <r>    2.8448    1.0000 </r>
       <r>    2.9803    1.0000 </r>
       <r>    2.9818    1.0000 </r>
       <r>    3.0047    1.0000 </r>
       <r>    3.0507    1.0000 </r>
       <r>    3.0771    1.0000 </r>
       <r>    3.0886    1.0000 </r>
       <r>    3.1186    1.0000 </r>
       <r>    3.1533    1.0000 </r>
       <r>    3.1573    1.0000 </r>
       <r>    3.1774    1.0000 </r>
       <r>    3.1917    1.0000 </r>
       <r>    3.2246    1.0000 </r>
       <r>    3.2326    1.0000 </r>
       <r>    3.2432    1.0000 </r>
       <r>    3.3409    1.0000 </r>
       <r>    3.3669    1.0000 </r>
       <r>    3.4585    1.0000 </r>
       <r>    3.5418    1.0000 </r>
       <r>    3.6226    1.0000 </r>
       <r>    3.7841    1.0000 </r>
       <r>    4.1681    1.0000 </r>
       <r>    4.1704    1.0000 </r>
       <r>    4.2226    1.0000 </r>
       <r>    4.2285    1.0000 </r>
       <r>    4.9714    0.0000 </r>
       <r>    4.9762    0.0000 </r>
       <r>    5.1590    0.0000 </r>
       <r>    5.1642    0.0000 </r>
       <r>    5.6749    0.0000 </r>
       <r>    5.6817    0.0000 </r>
       <r>    5.7808    0.0000 </r>
       <r>    5.7860    0.0000 </r>
       <r>    6.0937    0.0000 </r>
       <r>    6.1167    0.0000 </r>
       <r>    6.1404    0.0000 </r>
       <r>    6.1525    0.0000 </r>
       <r>    6.2234    0.0000 </r>
       <r>    6.2390    0.0000 </r>
       <r>    6.2564    0.0000 </r>
       <r>    6.2592    0.0000 </r>
       <r>    6.9492    0.0000 </r>
       <r>    7.0048    0.0000 </r>
       <r>    7.2248    0.0000 </r>
       <r>    7.2383    0.0000 </r>
       <r>    7.7210    0.0000 </r>
       <r>    7.8022    0.0000 </r>
       <r>    7.8256    0.0000 </r>
       <r>    7.9151    0.0000 </r>
       <r>    7.9328    0.0000 </r>
       <r>    7.9721    0.0000 </r>
       <r>    8.0612    0.0000 </r>
       <r>    8.0974    0.0000 </r>
       <r>    8.3321    0.0000 </r>
       <r>    8.6244    0.0000 </r>
       <r>    8.6749    0.0000 </r>
       <r>    8.7517    0.0000 </r>
       <r>    8.8022    0.0000 </r>
       <r>    8.8176    0.0000 </r>
       <r>    8.8479    0.0000 </r>
       <r>    8.9290    0.0000 </r>
       <r>    8.9610    0.0000 </r>
       <r>    8.9884    0.0000 </r>
       <r>    9.0195    0.0000 </r>
       <r>    9.0955    0.0000 </r>
       <r>    9.1171    0.0000 </r>
       <r>    9.1306    0.0000 </r>
       <r>    9.1918    0.0000 </r>
       <r>    9.2453    0.0000 </r>
       <r>    9.3597    0.0000 </r>
       <r>    9.4358    0.0000 </r>
       <r>    9.5007    0.0000 </r>
       <r>    9.5211    0.0000 </r>
       <r>    9.6893    0.0000 </r>
       <r>    9.8101    0.0000 </r>
      </set>
      <set comment="kpoint 2">
       <r>  -40.7820    1.0000 </r>
       <r>  -40.1407    1.0000 </r>
       <r>  -40.0236    1.0000 </r>
       <r>  -39.6895    1.0000 </r>
       <r>  -39.5701    1.0000 </r>
       <r>  -38.9798    1.0000 </r>
       <r>  -19.0370    1.0000 </r>
       <r>  -19.0350    1.0000 </r>
       <r>  -18.9660    1.0000 </r>
       <r>  -18.9634    1.0000 </r>
       <r>  -18.9614    1.0000 </r>
       <r>  -18.9592    1.0000 </r>
       <r>  -18.9523    1.0000 </r>
       <r>  -18.9497    1.0000 </r>
       <r>  -18.8889    1.0000 </r>
       <r>  -18.8885    1.0000 </r>
       <r>  -18.8811    1.0000 </r>
       <r>  -18.8806    1.0000 </r>
       <r>  -18.8617    1.0000 </r>
       <r>  -18.8579    1.0000 </r>
       <r>  -18.8515    1.0000 </r>
       <r>  -18.8431    1.0000 </r>
       <r>  -18.7929    1.0000 </r>
       <r>  -18.7876    1.0000 </r>
       <r>  -18.7740    1.0000 </r>
       <r>  -18.7704    1.0000 </r>
       <r>  -18.7533    1.0000 </r>
       <r>  -18.7421    1.0000 </r>
       <r>  -18.7387    1.0000 </r>
       <r>  -18.7367    1.0000 </r>
       <r>  -18.7269    1.0000 </r>
       <r>  -18.7183    1.0000 </r>
       <r>  -18.6753    1.0000 </r>
       <r>  -18.6734    1.0000 </r>
       <r>  -18.6608    1.0000 </r>
       <r>  -18.6593    1.0000 </r>
       <r>  -18.6585    1.0000 </r>
       <r>  -18.6566    1.0000 </r>
       <r>  -18.6474    1.0000 </r>
       <r>  -18.6456    1.0000 </r>
       <r>  -18.6445    1.0000 </r>
       <r>  -18.6431    1.0000 </r>
       <r>  -18.6276    1.0000 </r>
       <r>  -18.6261    1.0000 </r>
       <r>  -18.6050    1.0000 </r>
       <r>  -18.6004    1.0000 </r>
       <r>  -18.5924    1.0000 </r>
       <r>  -18.5921    1.0000 </r>
       <r>  -18.5874    1.0000 </r>
       <r>  -18.5845    1.0000 </r>
       <r>  -18.5826    1.0000 </r>
       <r>  -18.5806    1.0000 </r>
       <r>  -18.5666    1.0000 </r>
       <r>  -18.5577    1.0000 </r>
       <r>  -18.5193    1.0000 </r>
       <r>  -18.5171    1.0000 </r>
       <r>  -18.5066    1.0000 </r>
       <r>  -18.5053    1.0000 </r>
       <r>  -18.4926    1.0000 </r>
       <r>  -18.4906    1.0000 </r>
       <r>  -18.4704    1.0000 </r>
       <r>  -18.4689    1.0000 </r>
       <r>  -18.4497    1.0000 </r>
       <r>  -18.4402    1.0000 </r>
       <r>  -18.4334    1.0000 </r>
       <r>  -18.4307    1.0000 </r>
       <r>  -18.4291    1.0000 </r>
       <r>  -18.4216    1.0000 </r>
       <r>  -18.4169    1.0000 </r>
       <r>  -18.4090    1.0000 </r>
       <r>  -18.3575    1.0000 </r>
       <r>  -18.3555    1.0000 </r>
       <r>  -18.3499    1.0000 </r>
       <r>  -18.3461    1.0000 </r>
       <r>  -18.3415    1.0000 </r>
       <r>  -18.3347    1.0000 </r>
       <r>  -18.2643    1.0000 </r>
       <r>  -18.2631    1.0000 </r>
       <r>  -18.2363    1.0000 </r>
       <r>  -18.2223    1.0000 </r>
       <r>  -18.2086    1.0000 </r>
       <r>  -18.2076    1.0000 </r>
       <r>  -18.1546    1.0000 </r>
       <r>  -18.1468    1.0000 </r>
       <r>  -18.1368    1.0000 </r>
       <r>  -18.1290    1.0000 </r>
       <r>  -13.7255    1.0000 </r>
       <r>  -13.6081    1.0000 </r>
       <r>  -13.5890    1.0000 </r>
       <r>  -13.5013    1.0000 </r>
       <r>  -12.9216    1.0000 </r>
       <r>  -12.8167    1.0000 </r>
       <r>  -12.8072    1.0000 </r>
       <r>  -12.7498    1.0000 </r>
       <r>  -12.6799    1.0000 </r>
       <r>  -12.6783    1.0000 </r>
       <r>  -12.6518    1.0000 </r>
       <r>  -12.5891    1.0000 </r>
       <r>  -12.0553    1.0000 </r>
       <r>  -11.9725    1.0000 </r>
       <r>  -11.9149    1.0000 </r>
       <r>  -11.8671    1.0000 </r>
       <r>   -9.2387    1.0000 </r>
       <r>   -9.0815    1.0000 </r>
       <r>   -8.9668    1.0000 </r>
       <r>   -8.8064    1.0000 </r>
       <r>   -8.4373    1.0000 </r>
       <r>   -8.4043    1.0000 </r>
       <r>   -8.3032    1.0000 </r>
       <r>   -8.2662    1.0000 </r>
       <r>   -8.2428    1.0000 </r>
       <r>   -8.2012    1.0000 </r>
       <r>   -8.1086    1.0000 </r>
       <r>   -8.0611    1.0000 </r>
       <r>   -7.7690    1.0000 </r>
       <r>   -7.6618    1.0000 </r>
       <r>   -7.6521    1.0000 </r>
       <r>   -7.5449    1.0000 </r>
       <r>   -6.0960    1.0000 </r>
       <r>   -6.0691    1.0000 </r>
       <r>   -5.9945    1.0000 </r>
       <r>   -5.9338    1.0000 </r>
       <r>   -5.8601    1.0000 </r>
       <r>   -5.8458    1.0000 </r>
       <r>   -5.7593    1.0000 </r>
       <r>   -5.6910    1.0000 </r>
       <r>   -5.6498    1.0000 </r>
       <r>   -5.6062    1.0000 </r>
       <r>   -5.4535    1.0000 </r>
       <r>   -5.4260    1.0000 </r>
       <r>   -4.5173    1.0000 </r>
       <r>   -4.3584    1.0000 </r>
       <r>   -4.3564    1.0000 </r>
       <r>   -4.1866    1.0000 </r>
       <r>   -1.3109    1.0000 </r>
       <r>   -1.1235    1.0000 </r>
       <r>   -0.9382    1.0000 </r>
       <r>   -0.7671    1.0000 </r>
       <r>   -0.5927    1.0000 </r>
       <r>   -0.4846    1.0000 </r>
       <r>   -0.1927    1.0000 </r>
       <r>   -0.1368    1.0000 </r>
       <r>   -0.0842    1.0000 </r>
       <r>   -0.0339    1.0000 </r>
       <r>   -0.0299    1.0000 </r>
       <r>    0.0260    1.0000 </r>
       <r>    0.0911    1.0000 </r>
       <r>    0.1923    1.0000 </r>
       <r>    0.2963    1.0000 </r>
       <r>    0.3223    1.0000 </r>
       <r>    0.3822    1.0000 </r>
       <r>    0.4515    1.0000 </r>
       <r>    0.4682    1.0000 </r>
       <r>    0.5301    1.0000 </r>
       <r>    0.5507    1.0000 </r>
       <r>    0.5978    1.0000 </r>
       <r>    0.6239    1.0000 </r>
       <r>    0.6574    1.0000 </r>
       <r>    0.6876    1.0000 </r>
       <r>    0.7435    1.0000 </r>
       <r>    0.7742    1.0000 </r>
       <r>    0.7919    1.0000 </r>
       <r>    0.8213    1.0000 </r>
       <r>    0.8781    1.0000 </r>
       <r>    0.9190    1.0000 </r>
       <r>    1.0304    1.0000 </r>
       <r>    1.0626    1.0000 </r>
       <r>    1.1267    1.0000 </r>
       <r>    1.1590    1.0000 </r>
       <r>    1.1853    1.0000 </r>
       <r>    1.2462    1.0000 </r>
       <r>    1.2749    1.0000 </r>
       <r>    1.2928    1.0000 </r>
       <r>    1.3313    1.0000 </r>
       <r>    1.3497    1.0000 </r>
       <r>    1.3974    1.0000 </r>
       <r>    1.4650    1.0000 </r>
       <r>    1.4881    1.0000 </r>
       <r>    1.5158    1.0000 </r>
       <r>    1.5887    1.0000 </r>
       <r>    1.6657    1.0000 </r>
       <r>    1.7065    1.0000 </r>
       <r>    1.7220    1.0000 </r>
       <r>    1.7724    1.0000 </r>
       <r>    1.8881    1.0000 </r>
       <r>    1.9002    1.0000 </r>
       <r>    1.9528    1.0000 </r>
       <r>    1.9862    1.0000 </r>
       <r>    2.0377    1.0000 </r>
       <r>    2.1190    1.0000 </r>
       <r>    2.1673    1.0000 </r>
       <r>    2.2044    1.0000 </r>
       <r>    2.2153    1.0000 </r>
       <r>    2.2554    1.0000 </r>
       <r>    2.3217    1.0000 </r>
       <r>    2.3598    1.0000 </r>
       <r>    2.4031    1.0000 </r>
       <r>    2.4481    1.0000 </r>
       <r>    2.4684    1.0000 </r>
       <r>    2.4855    1.0000 </r>
       <r>    2.5649    1.0000 </r>
       <r>    2.6034    1.0000 </r>
       <r>    2.6703    1.0000 </r>
       <r>    2.7052    1.0000 </r>
       <r>    2.7116    1.0000 </r>
       <r>    2.7201    1.0000 </r>
       <r>    2.7659    1.0000 </r>
       <r>    2.7950    1.0000 </r>
       <r>    2.8078    1.0000 </r>
       <r>    2.8999    1.0000 </r>
       <r>    2.9442    1.0000 </r>
       <r>    2.9767    1.0000 </r>
       <r>    3.0331    1.0000 </r>
       <r>    3.0350    1.0000 </r>
       <r>    3.0972    1.0000 </r>
       <r>    3.1296    1.0000 </r>
       <r>    3.1703    1.0000 </r>
       <r>    3.1974    1.0000 </r>
       <r>    3.2184    1.0000 </r>
       <r>    3.2829    1.0000 </r>
       <r>    3.3069    1.0000 </r>
       <r>    3.4220    1.0000 </r>
       <r>    3.4332    1.0000 </r>
       <r>    3.5354    1.0000 </r>
       <r>    3.5585    1.0000 </r>
       <r>    3.6298    1.0000 </r>
       <r>    3.6707    1.0000 </r>
       <r>    3.7213    1.0000 </r>
       <r>    3.7594    1.0000 </r>
       <r>    3.9139    1.0000 </r>
       <r>    5.5249    0.0000 </r>
       <r>    5.5360    0.0000 </r>
       <r>    5.6815    0.0000 </r>
       <r>    5.6886    0.0000 </r>
       <r>    5.7209    0.0000 </r>
       <r>    5.7221    0.0000 </r>
       <r>    5.8755    0.0000 </r>
       <r>    5.8803    0.0000 </r>
       <r>    7.0716    0.0000 </r>
       <r>    7.1224    0.0000 </r>
       <r>    7.1693    0.0000 </r>
       <r>    7.2255    0.0000 </r>
       <r>    7.2444    0.0000 </r>
       <r>    7.3413    0.0000 </r>
       <r>    7.3724    0.0000 </r>
       <r>    7.3803    0.0000 </r>
       <r>    7.4125    0.0000 </r>
       <r>    7.4574    0.0000 </r>
       <r>    7.5688    0.0000 </r>
       <r>    7.5811    0.0000 </r>
       <r>    7.7560    0.0000 </r>
       <r>    7.7915    0.0000 </r>
       <r>    7.8335    0.0000 </r>
       <r>    7.8380    0.0000 </r>
       <r>    7.8412    0.0000 </r>
       <r>    7.8839    0.0000 </r>
       <r>    7.9310    0.0000 </r>
       <r>    7.9527    0.0000 </r>
       <r>    7.9598    0.0000 </r>
       <r>    7.9754    0.0000 </r>
       <r>    8.0417    0.0000 </r>
       <r>    8.0897    0.0000 </r>
       <r>    8.2638    0.0000 </r>
       <r>    8.2880    0.0000 </r>
       <r>    8.4425    0.0000 </r>
       <r>    8.4992    0.0000 </r>
       <r>    8.6554    0.0000 </r>
       <r>    8.7154    0.0000 </r>
       <r>    8.7237    0.0000 </r>
       <r>    8.7304    0.0000 </r>
       <r>    8.7478    0.0000 </r>
       <r>    8.8452    0.0000 </r>
       <r>    8.9162    0.0000 </r>
       <r>    8.9315    0.0000 </r>
       <r>    9.0655    0.0000 </r>
       <r>    9.2398    0.0000 </r>
       <r>    9.2780    0.0000 </r>
       <r>    9.3310    0.0000 </r>
       <r>    9.4474    0.0000 </r>
       <r>    9.5515    0.0000 </r>
      </set>
      <set comment="kpoint 3">
       <r>  -40.7820    1.0000 </r>
       <r>  -40.1407    1.0000 </r>
       <r>  -40.0236    1.0000 </r>
       <r>  -39.6895    1.0000 </r>
       <r>  -39.5701    1.0000 </r>
       <r>  -38.9798    1.0000 </r>
       <r>  -19.0372    1.0000 </r>
       <r>  -19.0348    1.0000 </r>
       <r>  -18.9660    1.0000 </r>
       <r>  -18.9634    1.0000 </r>
       <r>  -18.9615    1.0000 </r>
       <r>  -18.9592    1.0000 </r>
       <r>  -18.9523    1.0000 </r>
       <r>  -18.9497    1.0000 </r>
       <r>  -18.8889    1.0000 </r>
       <r>  -18.8885    1.0000 </r>
       <r>  -18.8811    1.0000 </r>
       <r>  -18.8806    1.0000 </r>
       <r>  -18.8616    1.0000 </r>
       <r>  -18.8579    1.0000 </r>
       <r>  -18.8515    1.0000 </r>
       <r>  -18.8431    1.0000 </r>
       <r>  -18.7929    1.0000 </r>
       <r>  -18.7876    1.0000 </r>
       <r>  -18.7740    1.0000 </r>
       <r>  -18.7704    1.0000 </r>
       <r>  -18.7532    1.0000 </r>
       <r>  -18.7421    1.0000 </r>
       <r>  -18.7387    1.0000 </r>
       <r>  -18.7367    1.0000 </r>
       <r>  -18.7269    1.0000 </r>
       <r>  -18.7183    1.0000 </r>
       <r>  -18.6753    1.0000 </r>
       <r>  -18.6733    1.0000 </r>
       <r>  -18.6604    1.0000 </r>
       <r>  -18.6590    1.0000 </r>
       <r>  -18.6588    1.0000 </r>
       <r>  -18.6568    1.0000 </r>
       <r>  -18.6469    1.0000 </r>
       <r>  -18.6452    1.0000 </r>
       <r>  -18.6449    1.0000 </r>
       <r>  -18.6437    1.0000 </r>
       <r>  -18.6277    1.0000 </r>
       <r>  -18.6262    1.0000 </r>
       <r>  -18.6050    1.0000 </r>
       <r>  -18.6004    1.0000 </r>
       <r>  -18.5924    1.0000 </r>
       <r>  -18.5921    1.0000 </r>
       <r>  -18.5874    1.0000 </r>
       <r>  -18.5846    1.0000 </r>
       <r>  -18.5826    1.0000 </r>
       <r>  -18.5806    1.0000 </r>
       <r>  -18.5667    1.0000 </r>
       <r>  -18.5577    1.0000 </r>
       <r>  -18.5193    1.0000 </r>
       <r>  -18.5171    1.0000 </r>
       <r>  -18.5066    1.0000 </r>
       <r>  -18.5053    1.0000 </r>
       <r>  -18.4926    1.0000 </r>
       <r>  -18.4906    1.0000 </r>
       <r>  -18.4704    1.0000 </r>
       <r>  -18.4689    1.0000 </r>
       <r>  -18.4497    1.0000 </r>
       <r>  -18.4402    1.0000 </r>
       <r>  -18.4333    1.0000 </r>
       <r>  -18.4306    1.0000 </r>
       <r>  -18.4291    1.0000 </r>
       <r>  -18.4216    1.0000 </r>
       <r>  -18.4169    1.0000 </r>
       <r>  -18.4090    1.0000 </r>
       <r>  -18.3575    1.0000 </r>
       <r>  -18.3555    1.0000 </r>
       <r>  -18.3499    1.0000 </r>
       <r>  -18.3461    1.0000 </r>
       <r>  -18.3415    1.0000 </r>
       <r>  -18.3347    1.0000 </r>
       <r>  -18.2644    1.0000 </r>
       <r>  -18.2630    1.0000 </r>
       <r>  -18.2363    1.0000 </r>
       <r>  -18.2223    1.0000 </r>
       <r>  -18.2085    1.0000 </r>
       <r>  -18.2076    1.0000 </r>
       <r>  -18.1546    1.0000 </r>
       <r>  -18.1468    1.0000 </r>
       <r>  -18.1368    1.0000 </r>
       <r>  -18.1290    1.0000 </r>
       <r>  -13.7262    1.0000 </r>
       <r>  -13.6079    1.0000 </r>
       <r>  -13.5881    1.0000 </r>
       <r>  -13.5016    1.0000 </r>
       <r>  -12.9205    1.0000 </r>
       <r>  -12.8169    1.0000 </r>
       <r>  -12.8074    1.0000 </r>
       <r>  -12.7499    1.0000 </r>
       <r>  -12.6818    1.0000 </r>
       <r>  -12.6783    1.0000 </r>
       <r>  -12.6508    1.0000 </r>
       <r>  -12.5896    1.0000 </r>
       <r>  -12.0540    1.0000 </r>
       <r>  -11.9731    1.0000 </r>
       <r>  -11.9150    1.0000 </r>
       <r>  -11.8690    1.0000 </r>
       <r>   -9.3743    1.0000 </r>
       <r>   -9.0982    1.0000 </r>
       <r>   -8.5894    1.0000 </r>
       <r>   -8.5599    1.0000 </r>
       <r>   -8.5531    1.0000 </r>
       <r>   -8.4971    1.0000 </r>
       <r>   -8.3352    1.0000 </r>
       <r>   -8.3026    1.0000 </r>
       <r>   -8.2980    1.0000 </r>
       <r>   -8.2437    1.0000 </r>
       <r>   -8.0371    1.0000 </r>
       <r>   -8.0231    1.0000 </r>
       <r>   -8.0041    1.0000 </r>
       <r>   -7.9902    1.0000 </r>
       <r>   -7.3813    1.0000 </r>
       <r>   -7.3804    1.0000 </r>
       <r>   -6.4124    1.0000 </r>
       <r>   -6.4058    1.0000 </r>
       <r>   -6.3821    1.0000 </r>
       <r>   -6.3802    1.0000 </r>
       <r>   -5.6132    1.0000 </r>
       <r>   -5.5872    1.0000 </r>
       <r>   -5.4803    1.0000 </r>
       <r>   -5.3519    1.0000 </r>
       <r>   -5.3305    1.0000 </r>
       <r>   -5.3127    1.0000 </r>
       <r>   -5.1879    1.0000 </r>
       <r>   -5.0758    1.0000 </r>
       <r>   -5.0511    1.0000 </r>
       <r>   -5.0287    1.0000 </r>
       <r>   -3.8950    1.0000 </r>
       <r>   -3.5833    1.0000 </r>
       <r>   -1.4316    1.0000 </r>
       <r>   -1.3576    1.0000 </r>
       <r>   -1.2926    1.0000 </r>
       <r>   -1.0873    1.0000 </r>
       <r>   -0.5696    1.0000 </r>
       <r>   -0.5034    1.0000 </r>
       <r>   -0.4485    1.0000 </r>
       <r>   -0.4360    1.0000 </r>
       <r>   -0.4333    1.0000 </r>
       <r>   -0.4003    1.0000 </r>
       <r>   -0.3730    1.0000 </r>
       <r>   -0.3238    1.0000 </r>
       <r>   -0.2708    1.0000 </r>
       <r>   -0.1496    1.0000 </r>
       <r>   -0.1064    1.0000 </r>
       <r>    0.0608    1.0000 </r>
       <r>    0.1647    1.0000 </r>
       <r>    0.2564    1.0000 </r>
       <r>    0.2791    1.0000 </r>
       <r>    0.3793    1.0000 </r>
       <r>    0.5196    1.0000 </r>
       <r>    0.5615    1.0000 </r>
       <r>    0.6107    1.0000 </r>
       <r>    0.6425    1.0000 </r>
       <r>    0.6897    1.0000 </r>
       <r>    0.7146    1.0000 </r>
       <r>    0.7881    1.0000 </r>
       <r>    0.7951    1.0000 </r>
       <r>    0.8326    1.0000 </r>
       <r>    0.9728    1.0000 </r>
       <r>    0.9819    1.0000 </r>
       <r>    1.0674    1.0000 </r>
       <r>    1.1203    1.0000 </r>
       <r>    1.1517    1.0000 </r>
       <r>    1.2152    1.0000 </r>
       <r>    1.2794    1.0000 </r>
       <r>    1.3257    1.0000 </r>
       <r>    1.3880    1.0000 </r>
       <r>    1.3973    1.0000 </r>
       <r>    1.4422    1.0000 </r>
       <r>    1.4980    1.0000 </r>
       <r>    1.5697    1.0000 </r>
       <r>    1.5956    1.0000 </r>
       <r>    1.6668    1.0000 </r>
       <r>    1.7610    1.0000 </r>
       <r>    1.8019    1.0000 </r>
       <r>    1.8610    1.0000 </r>
       <r>    1.9313    1.0000 </r>
       <r>    1.9408    1.0000 </r>
       <r>    2.0537    1.0000 </r>
       <r>    2.0656    1.0000 </r>
       <r>    2.1447    1.0000 </r>
       <r>    2.2274    1.0000 </r>
       <r>    2.2637    1.0000 </r>
       <r>    2.3090    1.0000 </r>
       <r>    2.3225    1.0000 </r>
       <r>    2.3926    1.0000 </r>
       <r>    2.4370    1.0000 </r>
       <r>    2.4515    1.0000 </r>
       <r>    2.5064    1.0000 </r>
       <r>    2.5235    1.0000 </r>
       <r>    2.5383    1.0000 </r>
       <r>    2.5455    1.0000 </r>
       <r>    2.5631    1.0000 </r>
       <r>    2.5873    1.0000 </r>
       <r>    2.6005    1.0000 </r>
       <r>    2.6355    1.0000 </r>
       <r>    2.6898    1.0000 </r>
       <r>    2.7406    1.0000 </r>
       <r>    2.7941    1.0000 </r>
       <r>    2.8249    1.0000 </r>
       <r>    2.8387    1.0000 </r>
       <r>    2.9208    1.0000 </r>
       <r>    2.9506    1.0000 </r>
       <r>    2.9761    1.0000 </r>
       <r>    2.9986    1.0000 </r>
       <r>    3.0185    1.0000 </r>
       <r>    3.0294    1.0000 </r>
       <r>    3.0558    1.0000 </r>
       <r>    3.0880    1.0000 </r>
       <r>    3.1316    1.0000 </r>
       <r>    3.2482    1.0000 </r>
       <r>    3.2542    1.0000 </r>
       <r>    3.3067    1.0000 </r>
       <r>    3.3776    1.0000 </r>
       <r>    3.3992    1.0000 </r>
       <r>    3.4573    1.0000 </r>
       <r>    3.4764    1.0000 </r>
       <r>    3.4970    1.0000 </r>
       <r>    3.5559    1.0000 </r>
       <r>    3.5816    1.0000 </r>
       <r>    3.7319    1.0000 </r>
       <r>    4.2139    1.0000 </r>
       <r>    4.2290    1.0000 </r>
       <r>    4.2744    1.0000 </r>
       <r>    4.2783    1.0000 </r>
       <r>    5.0514    0.0000 </r>
       <r>    5.0556    0.0000 </r>
       <r>    5.2206    0.0000 </r>
       <r>    5.2253    0.0000 </r>
       <r>    5.6857    0.0000 </r>
       <r>    5.6883    0.0000 </r>
       <r>    5.7879    0.0000 </r>
       <r>    5.7993    0.0000 </r>
       <r>    6.1475    0.0000 </r>
       <r>    6.1605    0.0000 </r>
       <r>    6.1871    0.0000 </r>
       <r>    6.1937    0.0000 </r>
       <r>    6.2376    0.0000 </r>
       <r>    6.2587    0.0000 </r>
       <r>    6.2735    0.0000 </r>
       <r>    6.2764    0.0000 </r>
       <r>    6.6104    0.0000 </r>
       <r>    6.7079    0.0000 </r>
       <r>    6.8293    0.0000 </r>
       <r>    6.9983    0.0000 </r>
       <r>    7.1651    0.0000 </r>
       <r>    7.2011    0.0000 </r>
       <r>    7.3492    0.0000 </r>
       <r>    7.4901    0.0000 </r>
       <r>    7.8178    0.0000 </r>
       <r>    7.8599    0.0000 </r>
       <r>    7.8704    0.0000 </r>
       <r>    7.8846    0.0000 </r>
       <r>    8.0057    0.0000 </r>
       <r>    8.3681    0.0000 </r>
       <r>    8.3768    0.0000 </r>
       <r>    8.4095    0.0000 </r>
       <r>    8.5941    0.0000 </r>
       <r>    8.7581    0.0000 </r>
       <r>    8.8475    0.0000 </r>
       <r>    8.8672    0.0000 </r>
       <r>    8.9675    0.0000 </r>
       <r>    9.0055    0.0000 </r>
       <r>    9.0317    0.0000 </r>
       <r>    9.0509    0.0000 </r>
       <r>    9.0776    0.0000 </r>
       <r>    9.1194    0.0000 </r>
       <r>    9.1550    0.0000 </r>
       <r>    9.1948    0.0000 </r>
       <r>    9.4533    0.0000 </r>
       <r>    9.4839    0.0000 </r>
       <r>    9.6004    0.0000 </r>
       <r>    9.6685    0.0000 </r>
       <r>    9.7182    0.0000 </r>
       <r>    9.7467    0.0000 </r>
      </set>
      <set comment="kpoint 4">
       <r>  -40.7820    1.0000 </r>
       <r>  -40.1407    1.0000 </r>
       <r>  -40.0236    1.0000 </r>
       <r>  -39.6895    1.0000 </r>
       <r>  -39.5701    1.0000 </r>
       <r>  -38.9798    1.0000 </r>
       <r>  -19.0372    1.0000 </r>
       <r>  -19.0348    1.0000 </r>
       <r>  -18.9660    1.0000 </r>
       <r>  -18.9634    1.0000 </r>
       <r>  -18.9614    1.0000 </r>
       <r>  -18.9592    1.0000 </r>
       <r>  -18.9522    1.0000 </r>
       <r>  -18.9497    1.0000 </r>
       <r>  -18.8889    1.0000 </r>
       <r>  -18.8885    1.0000 </r>
       <r>  -18.8811    1.0000 </r>
       <r>  -18.8806    1.0000 </r>
       <r>  -18.8616    1.0000 </r>
       <r>  -18.8579    1.0000 </r>
       <r>  -18.8515    1.0000 </r>
       <r>  -18.8431    1.0000 </r>
       <r>  -18.7929    1.0000 </r>
       <r>  -18.7876    1.0000 </r>
       <r>  -18.7740    1.0000 </r>
       <r>  -18.7704    1.0000 </r>
       <r>  -18.7533    1.0000 </r>
       <r>  -18.7421    1.0000 </r>
       <r>  -18.7386    1.0000 </r>
       <r>  -18.7368    1.0000 </r>
       <r>  -18.7269    1.0000 </r>
       <r>  -18.7183    1.0000 </r>
       <r>  -18.6753    1.0000 </r>
       <r>  -18.6733    1.0000 </r>
       <r>  -18.6608    1.0000 </r>
       <r>  -18.6593    1.0000 </r>
       <r>  -18.6585    1.0000 </r>
       <r>  -18.6566    1.0000 </r>
       <r>  -18.6474    1.0000 </r>
       <r>  -18.6456    1.0000 </r>
       <r>  -18.6445    1.0000 </r>
       <r>  -18.6431    1.0000 </r>
       <r>  -18.6276    1.0000 </r>
       <r>  -18.6261    1.0000 </r>
       <r>  -18.6050    1.0000 </r>
       <r>  -18.6004    1.0000 </r>
       <r>  -18.5924    1.0000 </r>
       <r>  -18.5921    1.0000 </r>
       <r>  -18.5874    1.0000 </r>
       <r>  -18.5846    1.0000 </r>
       <r>  -18.5826    1.0000 </r>
       <r>  -18.5806    1.0000 </r>
       <r>  -18.5666    1.0000 </r>
       <r>  -18.5577    1.0000 </r>
       <r>  -18.5193    1.0000 </r>
       <r>  -18.5171    1.0000 </r>
       <r>  -18.5066    1.0000 </r>
       <r>  -18.5053    1.0000 </r>
       <r>  -18.4926    1.0000 </r>
       <r>  -18.4906    1.0000 </r>
       <r>  -18.4704    1.0000 </r>
       <r>  -18.4689    1.0000 </r>
       <r>  -18.4497    1.0000 </r>
       <r>  -18.4402    1.0000 </r>
       <r>  -18.4334    1.0000 </r>
       <r>  -18.4307    1.0000 </r>
       <r>  -18.4291    1.0000 </r>
       <r>  -18.4216    1.0000 </r>
       <r>  -18.4169    1.0000 </r>
       <r>  -18.4090    1.0000 </r>
       <r>  -18.3575    1.0000 </r>
       <r>  -18.3555    1.0000 </r>
       <r>  -18.3499    1.0000 </r>
       <r>  -18.3461    1.0000 </r>
       <r>  -18.3415    1.0000 </r>
       <r>  -18.3347    1.0000 </r>
       <r>  -18.2644    1.0000 </r>
       <r>  -18.2630    1.0000 </r>
       <r>  -18.2363    1.0000 </r>
       <r>  -18.2223    1.0000 </r>
       <r>  -18.2085    1.0000 </r>
       <r>  -18.2076    1.0000 </r>
       <r>  -18.1546    1.0000 </r>
       <r>  -18.1468    1.0000 </r>
       <r>  -18.1368    1.0000 </r>
       <r>  -18.1290    1.0000 </r>
       <r>  -13.7252    1.0000 </r>
       <r>  -13.6082    1.0000 </r>
       <r>  -13.5890    1.0000 </r>
[...]
       <r>    8.8122    0.0000 </r>
       <r>    8.8213    0.0000 </r>
       <r>    8.8631    0.0000 </r>
       <r>    8.8977    0.0000 </r>
       <r>    8.9187    0.0000 </r>
       <r>    8.9351    0.0000 </r>
       <r>    8.9758    0.0000 </r>
       <r>    9.4384    0.0000 </r>
       <r>    9.7739    0.0000 </r>
      </set>
     </set>
    </set>
   </array>
  </eigenvalues>
  <separator name="orbital magnetization" >
   <v name="MAGDIPOLOUT">      0.00000000      0.00000000      0.00000000</v>
  </separator>
  <dos>
   <i name="efermi">      4.31910481 </i>
   <total>
    <array>
     <dimension dim="1">gridpoints</dimension>
     <dimension dim="2">spin</dimension>
     <field>energy</field>
     <field>total</field>
     <field>integrated</field>
     <set>
      <set comment="spin 1">
       <r>   -43.3248     0.0000     0.0000 </r>
       <r>   -43.1384     0.0000     0.0000 </r>
       <r>   -42.9519     0.0000     0.0000 </r>
       <r>   -42.7654     0.0000     0.0000 </r>
       <r>   -42.5790     0.0000     0.0000 </r>
       <r>   -42.3925     0.0000     0.0000 </r>
       <r>   -42.2060     0.0000     0.0000 </r>
       <r>   -42.0195     0.0000     0.0000 </r>
       <r>   -41.8331     0.0000     0.0000 </r>
       <r>   -41.6466     0.0000     0.0000 </r>
       <r>   -41.4601     0.0000     0.0000 </r>
       <r>   -41.2736     0.0000     0.0000 </r>
       <r>   -41.0872     0.0000     0.0000 </r>
       <r>   -40.9007     0.0000     0.0000 </r>
       <r>   -40.7142     0.0000     2.0000 </r>
       <r>   -40.5277     0.0000     2.0000 </r>
       <r>   -40.3413     0.0000     2.0000 </r>
       <r>   -40.1548     0.0000     2.0000 </r>
       <r>   -39.9683     0.0000     6.0000 </r>
       <r>   -39.7819     0.0000     6.0000 </r>
       <r>   -39.5954     0.0000     8.0000 </r>
       <r>   -39.4089     0.0000    10.0000 </r>
       <r>   -39.2224     0.0000    10.0000 </r>
       <r>   -39.0360     0.0000    10.0000 </r>
       <r>   -38.8495     0.0000    12.0000 </r>
       <r>   -38.6630     0.0000    12.0000 </r>
       <r>   -38.4765     0.0000    12.0000 </r>
       <r>   -38.2901     0.0000    12.0000 </r>
       <r>   -38.1036     0.0000    12.0000 </r>
       <r>   -37.9171     0.0000    12.0000 </r>
       <r>   -37.7306     0.0000    12.0000 </r>
       <r>   -37.5442     0.0000    12.0000 </r>
       <r>   -37.3577     0.0000    12.0000 </r>
       <r>   -37.1712     0.0000    12.0000 </r>
       <r>   -36.9847     0.0000    12.0000 </r>
       <r>   -36.7983     0.0000    12.0000 </r>
       <r>   -36.6118     0.0000    12.0000 </r>
       <r>   -36.4253     0.0000    12.0000 </r>
       <r>   -36.2389     0.0000    12.0000 </r>
       <r>   -36.0524     0.0000    12.0000 </r>
       <r>   -35.8659     0.0000    12.0000 </r>
       <r>   -35.6794     0.0000    12.0000 </r>
       <r>   -35.4930     0.0000    12.0000 </r>
       <r>   -35.3065     0.0000    12.0000 </r>
       <r>   -35.1200     0.0000    12.0000 </r>
       <r>   -34.9335     0.0000    12.0000 </r>
       <r>   -34.7471     0.0000    12.0000 </r>
       <r>   -34.5606     0.0000    12.0000 </r>
       <r>   -34.3741     0.0000    12.0000 </r>
       <r>   -34.1876     0.0000    12.0000 </r>
       <r>   -34.0012     0.0000    12.0000 </r>
       <r>   -33.8147     0.0000    12.0000 </r>
       <r>   -33.6282     0.0000    12.0000 </r>
       <r>   -33.4418     0.0000    12.0000 </r>
       <r>   -33.2553     0.0000    12.0000 </r>
       <r>   -33.0688     0.0000    12.0000 </r>
       <r>   -32.8823     0.0000    12.0000 </r>
       <r>   -32.6959     0.0000    12.0000 </r>
       <r>   -32.5094     0.0000    12.0000 </r>
       <r>   -32.3229     0.0000    12.0000 </r>
       <r>   -32.1364     0.0000    12.0000 </r>
       <r>   -31.9500     0.0000    12.0000 </r>
       <r>   -31.7635     0.0000    12.0000 </r>
       <r>   -31.5770     0.0000    12.0000 </r>
       <r>   -31.3905     0.0000    12.0000 </r>
       <r>   -31.2041     0.0000    12.0000 </r>
       <r>   -31.0176     0.0000    12.0000 </r>
       <r>   -30.8311     0.0000    12.0000 </r>
       <r>   -30.6447     0.0000    12.0000 </r>
       <r>   -30.4582     0.0000    12.0000 </r>
       <r>   -30.2717     0.0000    12.0000 </r>
       <r>   -30.0852     0.0000    12.0000 </r>
       <r>   -29.8988     0.0000    12.0000 </r>
       <r>   -29.7123     0.0000    12.0000 </r>
       <r>   -29.5258     0.0000    12.0000 </r>
       <r>   -29.3393     0.0000    12.0000 </r>
       <r>   -29.1529     0.0000    12.0000 </r>
       <r>   -28.9664     0.0000    12.0000 </r>
       <r>   -28.7799     0.0000    12.0000 </r>
       <r>   -28.5934     0.0000    12.0000 </r>
       <r>   -28.4070     0.0000    12.0000 </r>
       <r>   -28.2205     0.0000    12.0000 </r>
       <r>   -28.0340     0.0000    12.0000 </r>
       <r>   -27.8476     0.0000    12.0000 </r>
       <r>   -27.6611     0.0000    12.0000 </r>
       <r>   -27.4746     0.0000    12.0000 </r>
       <r>   -27.2881     0.0000    12.0000 </r>
       <r>   -27.1017     0.0000    12.0000 </r>
       <r>   -26.9152     0.0000    12.0000 </r>
       <r>   -26.7287     0.0000    12.0000 </r>
       <r>   -26.5422     0.0000    12.0000 </r>
       <r>   -26.3558     0.0000    12.0000 </r>
       <r>   -26.1693     0.0000    12.0000 </r>
       <r>   -25.9828     0.0000    12.0000 </r>
       <r>   -25.7963     0.0000    12.0000 </r>
       <r>   -25.6099     0.0000    12.0000 </r>
       <r>   -25.4234     0.0000    12.0000 </r>
       <r>   -25.2369     0.0000    12.0000 </r>
       <r>   -25.0505     0.0000    12.0000 </r>
       <r>   -24.8640     0.0000    12.0000 </r>
       <r>   -24.6775     0.0000    12.0000 </r>
       <r>   -24.4910     0.0000    12.0000 </r>
       <r>   -24.3046     0.0000    12.0000 </r>
       <r>   -24.1181     0.0000    12.0000 </r>
       <r>   -23.9316     0.0000    12.0000 </r>
       <r>   -23.7451     0.0000    12.0000 </r>
       <r>   -23.5587     0.0000    12.0000 </r>
       <r>   -23.3722     0.0000    12.0000 </r>
       <r>   -23.1857     0.0000    12.0000 </r>
       <r>   -22.9992     0.0000    12.0000 </r>
       <r>   -22.8128     0.0000    12.0000 </r>
       <r>   -22.6263     0.0000    12.0000 </r>
       <r>   -22.4398     0.0000    12.0000 </r>
       <r>   -22.2534     0.0000    12.0000 </r>
       <r>   -22.0669     0.0000    12.0000 </r>
       <r>   -21.8804     0.0000    12.0000 </r>
       <r>   -21.6939     0.0000    12.0000 </r>
       <r>   -21.5075     0.0000    12.0000 </r>
       <r>   -21.3210     0.0000    12.0000 </r>
       <r>   -21.1345     0.0000    12.0000 </r>
       <r>   -20.9480     0.0000    12.0000 </r>
       <r>   -20.7616     0.0000    12.0000 </r>
       <r>   -20.5751     0.0000    12.0000 </r>
       <r>   -20.3886     0.0000    12.0000 </r>
       <r>   -20.2021     0.0000    12.0000 </r>
       <r>   -20.0157     0.0000    12.0000 </r>
       <r>   -19.8292     0.0000    12.0000 </r>
       <r>   -19.6427     0.0000    12.0000 </r>
       <r>   -19.4563     0.0000    12.0000 </r>
       <r>   -19.2698     0.0000    12.0000 </r>
       <r>   -19.0833     0.0000    12.0000 </r>
       <r>   -18.8968     0.0000    28.0000 </r>
       <r>   -18.7104     0.0000    64.0000 </r>
       <r>   -18.5239     0.0000   108.0000 </r>
       <r>   -18.3374     0.0000   150.0000 </r>
       <r>   -18.1509     0.0000   166.0000 </r>
       <r>   -17.9645     0.0000   172.0000 </r>
       <r>   -17.7780     0.0000   172.0000 </r>
       <r>   -17.5915     0.0000   172.0000 </r>
       <r>   -17.4050     0.0000   172.0000 </r>
       <r>   -17.2186     0.0000   172.0000 </r>
       <r>   -17.0321     0.0000   172.0000 </r>
       <r>   -16.8456     0.0000   172.0000 </r>
       <r>   -16.6592     0.0000   172.0000 </r>
       <r>   -16.4727     0.0000   172.0000 </r>
       <r>   -16.2862     0.0000   172.0000 </r>
       <r>   -16.0997     0.0000   172.0000 </r>
       <r>   -15.9133     0.0000   172.0000 </r>
       <r>   -15.7268     0.0000   172.0000 </r>
       <r>   -15.5403     0.0000   172.0000 </r>
       <r>   -15.3538     0.0000   172.0000 </r>
       <r>   -15.1674     0.0000   172.0000 </r>
       <r>   -14.9809     0.0000   172.0000 </r>
       <r>   -14.7944     0.0000   172.0000 </r>
       <r>   -14.6079     0.0000   172.0000 </r>
       <r>   -14.4215     0.0000   172.0000 </r>
       <r>   -14.2350     0.0000   172.0000 </r>
       <r>   -14.0485     0.0000   172.0000 </r>
       <r>   -13.8621     0.0000   172.0000 </r>
       <r>   -13.6756     0.0000   174.0000 </r>
       <r>   -13.4891     0.0000   180.0000 </r>
       <r>   -13.3026     0.0000   180.0000 </r>
       <r>   -13.1162     0.0000   180.0000 </r>
       <r>   -12.9297     0.0000   180.0000 </r>
       <r>   -12.7432     0.0000   188.0000 </r>
       <r>   -12.5567     0.0000   196.0000 </r>
       <r>   -12.3703     0.0000   196.0000 </r>
       <r>   -12.1838     0.0000   196.0000 </r>
       <r>   -11.9973     0.0000   198.0000 </r>
       <r>   -11.8108     0.0000   204.0000 </r>
       <r>   -11.6244     0.0000   204.0000 </r>
       <r>   -11.4379     0.0000   204.0000 </r>
       <r>   -11.2514     0.0000   204.0000 </r>
       <r>   -11.0649     0.0000   204.0000 </r>
       <r>   -10.8785     0.0000   204.0000 </r>
       <r>   -10.6920     0.0000   204.0000 </r>
       <r>   -10.5055     0.0000   204.0000 </r>
       <r>   -10.3191     0.0000   204.0000 </r>
       <r>   -10.1326     0.0000   204.0000 </r>
       <r>    -9.9461     0.0000   204.0000 </r>
       <r>    -9.7596     0.0000   204.0000 </r>
       <r>    -9.5732     0.0000   204.0000 </r>
       <r>    -9.3867     0.0000   204.0000 </r>
       <r>    -9.2002     9.5065   205.6462 </r>
       <r>    -9.0137    13.6217   207.6681 </r>
       <r>    -8.8273    14.3249   209.4872 </r>
       <r>    -8.6408    13.4874   212.1350 </r>
       <r>    -8.4543    29.2645   216.1588 </r>
       <r>    -8.2678     7.6058   220.1524 </r>
       <r>    -8.0814    18.5293   223.1253 </r>
       <r>    -7.8949    18.9310   227.8957 </r>
       <r>    -7.7084    12.7974   231.3406 </r>
       <r>    -7.5220    22.0914   234.4521 </r>
       <r>    -7.3355     0.0000   236.0000 </r>
       <r>    -7.1490     0.0000   236.0000 </r>
       <r>    -6.9625     0.0000   236.0000 </r>
       <r>    -6.7761     0.0000   236.0000 </r>
       <r>    -6.5896     0.0000   236.0000 </r>
       <r>    -6.4031     1.0917   236.0068 </r>
       <r>    -6.2166    24.3336   238.5037 </r>
       <r>    -6.0302    23.2974   242.9678 </r>
       <r>    -5.8437    18.3158   245.2706 </r>
       <r>    -5.6572    23.1494   250.1002 </r>
       <r>    -5.4707    14.0164   253.5009 </r>
       <r>    -5.2843    18.3089   257.4486 </r>
       <r>    -5.0978     5.7950   259.7685 </r>
       <r>    -4.9113     6.6042   260.5012 </r>
       <r>    -4.7249     9.1573   262.0336 </r>
       <r>    -4.5384     7.2305   263.7997 </r>
       <r>    -4.3519     6.1000   265.2073 </r>
       <r>    -4.1654     6.5536   266.4415 </r>
       <r>    -3.9790     3.8553   267.4457 </r>
       <r>    -3.7925     1.2878   267.8907 </r>
       <r>    -3.6060     0.0232   267.9998 </r>
       <r>    -3.4195     0.0000   268.0000 </r>
       <r>    -3.2331     0.0000   268.0000 </r>
       <r>    -3.0466     0.0000   268.0000 </r>
       <r>    -2.8601     0.0000   268.0000 </r>
       <r>    -2.6736     0.0000   268.0000 </r>
       <r>    -2.4872     0.0000   268.0000 </r>
       <r>    -2.3007     0.0000   268.0000 </r>
       <r>    -2.1142     0.0000   268.0000 </r>
       <r>    -1.9278     0.0000   268.0000 </r>
       <r>    -1.7413     0.0000   268.0000 </r>
       <r>    -1.5548     0.0075   268.0000 </r>
       <r>    -1.3683     4.0193   268.2809 </r>
       <r>    -1.1819    10.2908   269.6399 </r>
       <r>    -0.9954    13.5181   271.8654 </r>
       <r>    -0.8089    10.6653   274.1832 </r>
       <r>    -0.6224     5.5566   275.5468 </r>
       <r>    -0.4360    22.7882   278.7418 </r>
       <r>    -0.2495    26.3185   283.2444 </r>
       <r>    -0.0630    36.7993   289.6063 </r>
       <r>     0.1235    22.1079   295.7438 </r>
       <r>     0.3099    35.0194   301.8817 </r>
       <r>     0.4964    42.8441   309.0944 </r>
       <r>     0.6829    54.2084   316.2186 </r>
       <r>     0.8693    39.3622   325.0954 </r>
       <r>     1.0558    42.9847   332.1796 </r>
       <r>     1.2423    51.6033   340.5469 </r>
       <r>     1.4288    42.3160   349.9515 </r>
       <r>     1.6152    44.2860   357.8331 </r>
       <r>     1.8017    40.5727   365.6884 </r>
       <r>     1.9882    42.5791   372.1395 </r>
       <r>     2.1747    45.2393   379.9274 </r>
       <r>     2.3611    53.6252   388.7773 </r>
       <r>     2.5476    51.9906   399.9495 </r>
       <r>     2.7341    70.9437   409.9471 </r>
       <r>     2.9206    59.7852   419.9539 </r>
       <r>     3.1070    56.4293   431.2454 </r>
       <r>     3.2935    37.4849   440.1062 </r>
       <r>     3.4800    34.9280   447.2341 </r>
       <r>     3.6664    22.7020   452.4469 </r>
       <r>     3.8529    20.0433   456.0565 </r>
       <r>     4.0394    10.0304   459.0168 </r>
       <r>     4.2259     0.8382   459.9857 </r>
       <r>     4.4123     0.0000   460.0000 </r>
       <r>     4.5988     0.0000   460.0000 </r>
       <r>     4.7853     0.0000   460.0000 </r>
       <r>     4.9718     0.0000   460.0000 </r>
       <r>     5.1582     1.6415   460.1217 </r>
       <r>     5.3447     5.9909   460.7977 </r>
       <r>     5.5312    10.2812   462.3599 </r>
       <r>     5.7177    15.2222   464.1585 </r>
       <r>     5.9041    21.8285   467.8998 </r>
       <r>     6.0906    12.2775   470.5430 </r>
       <r>     6.2771    12.1187   472.7413 </r>
       <r>     6.4635    14.6696   475.2398 </r>
       <r>     6.6500    17.0710   478.2052 </r>
       <r>     6.8365    19.5735   481.6100 </r>
       <r>     7.0230    24.0750   485.6212 </r>
       <r>     7.2094    30.5043   490.6775 </r>
       <r>     7.3959    33.8080   496.5903 </r>
       <r>     7.5824    25.8553   502.0546 </r>
       <r>     7.7689    47.5556   508.3342 </r>
       <r>     7.9553    38.4242   518.1525 </r>
       <r>     8.1418    22.1623   523.3068 </r>
       <r>     8.3283    18.6251   527.0061 </r>
       <r>     8.5148    22.5548   530.8414 </r>
       <r>     8.7012    28.9391   535.6766 </r>
       <r>     8.8877    43.6118   543.2389 </r>
       <r>     9.0742    21.2165   549.1489 </r>
       <r>     9.2606    16.2598   552.4490 </r>
       <r>     9.4471    14.3675   555.3779 </r>
       <r>     9.6336    14.0680   557.9093 </r>
       <r>     9.8201     6.3109   559.5218 </r>
       <r>    10.0065     0.3693   559.9917 </r>
       <r>    10.1930     0.0000   560.0000 </r>
       <r>    10.3795     0.0000   560.0000 </r>
       <r>    10.5660     0.0000   560.0000 </r>
       <r>    10.7524     0.0000   560.0000 </r>
       <r>    10.9389     0.0000   560.0000 </r>
       <r>    11.1254     0.0000   560.0000 </r>
       <r>    11.3119     0.0000   560.0000 </r>
       <r>    11.4983     0.0000   560.0000 </r>
       <r>    11.6848     0.0000   560.0000 </r>
       <r>    11.8713     0.0000   560.0000 </r>
       <r>    12.0578     0.0000   560.0000 </r>
       <r>    12.2442     0.0000   560.0000 </r>
       <r>    12.4307     0.0000   560.0000 </r>
       <r>    12.6172     0.0000   560.0000 </r>
      </set>
     </set>
    </array>
   </total>
  </dos>
 </calculation>
 <structure name="finalpos" >
  <crystal>
   <varray name="basis" >
    <v>      11.17850000       0.00000000       0.00000000 </v>
    <v>       0.00000000       9.57460000       0.00000000 </v>
    <v>       0.00000000       0.00000000      11.18240000 </v>
   </varray>
   <i name="volume">   1196.84853820 </i>
   <varray name="rec_basis" >
    <v>       0.08945744       0.00000000       0.00000000 </v>
    <v>       0.00000000       0.10444301       0.00000000 </v>
    <v>       0.00000000       0.00000000       0.08942624 </v>
   </varray>
  </crystal>
  <varray name="positions" >
   <v>       0.37539000       0.00017000       0.43687000 </v>
   <v>       0.12461000       0.99984000       0.18687000 </v>
   <v>       0.37461000       0.00017000       0.18687000 </v>
   <v>       0.62461000       0.99984000       0.18687000 </v>
   <v>       0.87461000       0.00017000       0.18687000 </v>
   <v>       0.62539000       0.99984000       0.93687000 </v>
   <v>       0.87539000       0.00017000       0.43687000 </v>
   <v>       0.37539000       0.00017000       0.93687000 </v>
   <v>       0.12461000       0.99984000       0.68687000 </v>
   <v>       0.87539000       0.00017000       0.93687000 </v>
   <v>       0.62461000       0.99984000       0.68687000 </v>
   <v>       0.00013000       0.29519000       0.06281000 </v>
   <v>       0.25013000       0.70481000       0.06281000 </v>
   <v>       0.24987000       0.29519000       0.31282000 </v>
   <v>       0.49987000       0.70481000       0.31282000 </v>
   <v>       0.50013000       0.29519000       0.06281000 </v>
   <v>       0.75013000       0.70481000       0.06281000 </v>
   <v>       0.74987000       0.29519000       0.31282000 </v>
   <v>       0.99987000       0.70481000       0.31282000 </v>
   <v>       0.00013000       0.29519000       0.56281000 </v>
   <v>       0.25013000       0.70481000       0.56281000 </v>
   <v>       0.24987000       0.29519000       0.81282000 </v>
   <v>       0.49987000       0.70481000       0.81282000 </v>
   <v>       0.50013000       0.29519000       0.56281000 </v>
   <v>       0.75013000       0.70481000       0.56281000 </v>
   <v>       0.74987000       0.29519000       0.81282000 </v>
   <v>       0.99987000       0.70481000       0.81282000 </v>
   <v>       0.25005000       0.32677000       0.06286000 </v>
   <v>       0.00005000       0.67323000       0.06286000 </v>
   <v>       0.49995000       0.32677000       0.31286000 </v>
   <v>       0.24995000       0.67323000       0.31286000 </v>
   <v>       0.75005000       0.32677000       0.06286000 </v>
   <v>       0.50005000       0.67323000       0.06286000 </v>
   <v>       0.99995000       0.32677000       0.31286000 </v>
   <v>       0.74995000       0.67323000       0.31286000 </v>
   <v>       0.25005000       0.32677000       0.56286000 </v>
   <v>       0.00005000       0.67323000       0.56286000 </v>
   <v>       0.49995000       0.32677000       0.81286000 </v>
   <v>       0.24995000       0.67323000       0.81286000 </v>
   <v>       0.75005000       0.32677000       0.56286000 </v>
   <v>       0.50005000       0.67323000       0.56286000 </v>
   <v>       0.99995000       0.32677000       0.81286000 </v>
   <v>       0.74995000       0.67323000       0.81286000 </v>
   <v>       0.49987000       0.07798000       0.06246000 </v>
   <v>       0.24987000       0.92202000       0.06246000 </v>
   <v>       0.25013000       0.07798000       0.31246000 </v>
   <v>       0.00013000       0.92202000       0.31246000 </v>
   <v>       0.99987000       0.07798000       0.06246000 </v>
   <v>       0.74987000       0.92202000       0.06246000 </v>
   <v>       0.75013000       0.07798000       0.31246000 </v>
   <v>       0.50013000       0.92202000       0.31246000 </v>
   <v>       0.49987000       0.07798000       0.56246000 </v>
   <v>       0.24987000       0.92202000       0.56246000 </v>
   <v>       0.25013000       0.07798000       0.81246000 </v>
   <v>       0.00013000       0.92202000       0.81246000 </v>
   <v>       0.99987000       0.07798000       0.56246000 </v>
   <v>       0.74987000       0.92202000       0.56246000 </v>
   <v>       0.75013000       0.07798000       0.81246000 </v>
   <v>       0.50013000       0.92202000       0.81246000 </v>
  </varray>
 </structure>
</modeling>
