<?xml version="1.0" encoding="ISO-8859-1"?>
<modeling>
 <generator>
  <i name="program" type="string">vasp </i>
  <i name="version" type="string">5.3.3  </i>
  <i name="subversion" type="string">18Dez12 (build Nov 19 2020 19:34:37) complex                          parallel </i>
  <i name="platform" type="string">LinuxIFC </i>
  <i name="date" type="string">2021 09 24 </i>
  <i name="time" type="string">15:51:50 </i>
 </generator>
 <incar>
  <i type="string" name="SYSTEM"> La2O2S</i>
  <i type="string" name="PREC">normal</i>
  <i type="int" name="NELMIN">     4</i>
  <i type="int" name="IBRION">     2</i>
  <i type="int" name="NFREE">    10</i>
  <i name="EDIFF">      0.00000100</i>
  <i name="EDIFFG">     -0.01000000</i>
  <i type="int" name="NSW">   200</i>
  <i type="int" name="ISIF">     3</i>
  <i name="ENCUT">    600.00000000</i>
  <i name="ENAUG">    900.00000000</i>
  <i type="int" name="ISMEAR">    -5</i>
  <i type="logical" name="LWAVE"> F  </i>
  <i type="logical" name="LCHARG"> F  </i>
 </incar>
 <kpoints>
  <generation param="Gamma">
   <v type="int" name="divisions">       2        2        2 </v>
   <v name="usershift">      0.00000000       0.00000000       0.00000000 </v>
   <v name="genvec1">      0.50000000       0.00000000       0.00000000 </v>
   <v name="genvec2">      0.00000000       0.50000000       0.00000000 </v>
   <v name="genvec3">      0.00000000       0.00000000       0.50000000 </v>
   <v name="shift">      0.00000000       0.00000000       0.00000000 </v>
  </generation>
  <varray name="kpointlist" >
   <v>       0.00000000       0.00000000       0.00000000 </v>
   <v>       0.50000000       0.00000000       0.00000000 </v>
   <v>       0.00000000       0.50000000       0.00000000 </v>
   <v>       0.50000000       0.50000000       0.00000000 </v>
   <v>       0.00000000       0.00000000       0.50000000 </v>
   <v>       0.50000000       0.00000000       0.50000000 </v>
   <v>       0.00000000       0.50000000       0.50000000 </v>
   <v>       0.50000000       0.50000000       0.50000000 </v>
  </varray>
  <varray name="weights" >
   <v>       0.12500000 </v>
   <v>       0.12500000 </v>
   <v>       0.12500000 </v>
   <v>       0.12500000 </v>
   <v>       0.12500000 </v>
   <v>       0.12500000 </v>
   <v>       0.12500000 </v>
   <v>       0.12500000 </v>
  </varray>
  <varray name="tetrahedronlist"  type="int" >
   <v type="int" >        2        1        2        4        5 </v>
   <v type="int" >        2        1        3        4        5 </v>
   <v type="int" >        2        3        4        5        7 </v>
   <v type="int" >        2        2        4        5        6 </v>
   <v type="int" >        2        4        5        6        8 </v>
   <v type="int" >        2        4        5        7        8 </v>
   <v type="int" >        2        1        2        3        6 </v>
   <v type="int" >        2        2        3        4        6 </v>
   <v type="int" >        2        3        4        6        8 </v>
   <v type="int" >        2        1        3        5        6 </v>
   <v type="int" >        2        3        5        6        7 </v>
   <v type="int" >        2        3        6        7        8 </v>
   <v type="int" >        2        2        3        4        7 </v>
   <v type="int" >        2        1        2        3        7 </v>
   <v type="int" >        2        1        2        5        7 </v>
   <v type="int" >        2        2        4        7        8 </v>
   <v type="int" >        2        2        6        7        8 </v>
   <v type="int" >        2        2        5        6        7 </v>
   <v type="int" >        2        1        3        4        8 </v>
   <v type="int" >        2        1        2        4        8 </v>
   <v type="int" >        2        1        2        6        8 </v>
   <v type="int" >        2        1        3        7        8 </v>
   <v type="int" >        2        1        5        7        8 </v>
   <v type="int" >        2        1        5        6        8 </v>
  </varray>
  <i name="volumeweight">      0.02083333 </i>
 </kpoints>
 <parameters>
  <separator name="general" >
   <i type="string" name="SYSTEM">La2O2S</i>
   <i type="logical" name="LCOMPAT"> F  </i>
  </separator>
  <separator name="electronic" >
   <i type="string" name="PREC">normal</i>
   <i name="ENMAX">    600.00000000</i>
   <i name="ENAUG">    900.00000000</i>
   <i name="EDIFF">      0.00000100</i>
   <i type="int" name="IALGO">    38</i>
   <i type="int" name="IWAVPR">    11</i>
   <i type="int" name="NBANDS">   320</i>
   <i name="NELECT">    476.00000000</i>
   <i type="int" name="TURBO">     0</i>
   <i type="int" name="IRESTART">     0</i>
   <i type="int" name="NREBOOT">     0</i>
   <i type="int" name="NMIN">     0</i>
   <i name="EREF">      0.00000000</i>
   <separator name="electronic smearing" >
    <i type="int" name="ISMEAR">    -5</i>
    <i name="SIGMA">      0.20000000</i>
    <i name="KSPACING">      0.50000000</i>
    <i type="logical" name="KGAMMA"> T  </i>
   </separator>
   <separator name="electronic projectors" >
    <i type="logical" name="LREAL"> F  </i>
    <v name="ROPT">      0.00000000      0.00000000      0.00000000      0.00000000      0.00000000</v>
    <i type="int" name="LMAXPAW">  -100</i>
    <i type="int" name="LMAXMIX">     2</i>
    <i type="logical" name="NLSPLINE"> F  </i>
   </separator>
   <separator name="electronic startup" >
    <i type="int" name="ISTART">     0</i>
    <i type="int" name="ICHARG">     2</i>
    <i type="int" name="INIWAV">     1</i>
   </separator>
   <separator name="electronic spin" >
    <i type="int" name="ISPIN">     1</i>
    <i type="logical" name="LNONCOLLINEAR"> F  </i>
    <v name="MAGMOM">      1.00000000      1.00000000      1.00000000      1.00000000      1.00000000      1.00000000      1.00000000      1.00000000      1.00000000      1.00000000      1.00000000      1.00000000      1.00000000      1.00000000      1.00000000      1.00000000      1.00000000      1.00000000      1.00000000      1.00000000
      1.00000000      1.00000000      1.00000000      1.00000000      1.00000000      1.00000000      1.00000000      1.00000000      1.00000000      1.00000000      1.00000000      1.00000000      1.00000000      1.00000000      1.00000000      1.00000000      1.00000000      1.00000000      1.00000000      1.00000000
      1.00000000      1.00000000      1.00000000      1.00000000      1.00000000      1.00000000      1.00000000      1.00000000      1.00000000      1.00000000      1.00000000      1.00000000      1.00000000      1.00000000      1.00000000      1.00000000      1.00000000      1.00000000      1.00000000      1.00000000
      1.00000000      1.00000000      1.00000000</v>
    <i name="NUPDOWN">     -1.00000000</i>
    <i type="logical" name="LSORBIT"> F  </i>
    <v name="SAXIS">      0.00000000      0.00000000      1.00000000</v>
    <i type="logical" name="LSPIRAL"> F  </i>
    <v name="QSPIRAL">      0.00000000      0.00000000      0.00000000</v>
    <i type="logical" name="LZEROZ"> F  </i>
   </separator>
   <separator name="electronic exchange-correlation" >
    <i type="logical" name="LASPH"> F  </i>
    <i type="logical" name="LMETAGGA"> F  </i>
   </separator>
   <separator name="electronic convergence" >
    <i type="int" name="NELM">    60</i>
    <i type="int" name="NELMDL">    -5</i>
    <i type="int" name="NELMIN">     4</i>
    <i name="ENINI">    600.00000000</i>
    <separator name="electronic convergence detail" >
     <i type="logical" name="LDIAG"> T  </i>
     <i type="logical" name="LSUBROT"> T  </i>
     <i name="WEIMIN">      0.00100000</i>
     <i name="EBREAK">      0.00000000</i>
     <i name="DEPER">      0.30000000</i>
     <i type="int" name="NRMM">     4</i>
     <i name="TIME">      0.40000000</i>
    </separator>
   </separator>
   <separator name="electronic mixer" >
    <i name="AMIX">      0.40000000</i>
    <i name="BMIX">      1.00000000</i>
    <i name="AMIN">      0.10000000</i>
    <i name="AMIX_MAG">      1.60000000</i>
    <i name="BMIX_MAG">      1.00000000</i>
    <separator name="electronic mixer details" >
     <i type="int" name="IMIX">     4</i>
     <i type="int" name="MAXMIX">   -45</i>
     <i name="WC">    100.00000000</i>
     <i type="int" name="INIMIX">     1</i>
     <i type="int" name="MIXPRE">     1</i>
     <i type="int" name="MREMOVE">     5</i>
    </separator>
   </separator>
   <separator name="electronic dipolcorrection" >
    <i type="logical" name="LDIPOL"> F  </i>
    <i type="logical" name="LMONO"> F  </i>
    <i type="int" name="IDIPOL">     0</i>
    <i name="EPSILON">      1.00000000</i>
    <v name="DIPOL">   -100.00000000   -100.00000000   -100.00000000</v>
    <i name="EFIELD">      0.00000000</i>
   </separator>
  </separator>
  <separator name="grids" >
   <i type="int" name="NGX">    70</i>
   <i type="int" name="NGY">    60</i>
   <i type="int" name="NGZ">    70</i>
   <i type="int" name="NGXF">   140</i>
   <i type="int" name="NGYF">   120</i>
   <i type="int" name="NGZF">   140</i>
   <i type="logical" name="ADDGRID"> F  </i>
  </separator>
  <separator name="ionic" >
   <i type="int" name="NSW">   200</i>
   <i type="int" name="IBRION">     2</i>
   <i type="int" name="ISIF">     3</i>
   <i name="PSTRESS">      0.00000000</i>
   <i name="EDIFFG">     -0.01000000</i>
   <i type="int" name="NFREE">    10</i>
   <i name="POTIM">      0.50000000</i>
   <i name="SMASS">     -3.00000000</i>
   <i name="SCALEE">      1.00000000</i>
  </separator>
  <separator name="ionic md" >
   <i name="TEBEG">      0.00010000</i>
   <i name="TEEND">      0.00010000</i>
   <i type="int" name="NBLOCK">     1</i>
   <i type="int" name="KBLOCK">   200</i>
   <i type="int" name="NPACO">   256</i>
   <i name="APACO">     16.00000000</i>
  </separator>
  <separator name="symmetry" >
   <i type="int" name="ISYM">     2</i>
   <i name="SYMPREC">      0.00001000</i>
  </separator>
  <separator name="dos" >
   <i type="logical" name="LORBIT"> F  </i>
   <v name="RWIGS">     -1.00000000     -1.00000000     -1.00000000     -1.00000000     -1.00000000</v>
   <i type="int" name="NEDOS">   301</i>
   <i name="EMIN">     10.00000000</i>
   <i name="EMAX">    -10.00000000</i>
   <i name="EFERMI">      0.00000000</i>
  </separator>
  <separator name="writing" >
   <i type="int" name="NWRITE">     2</i>
   <i type="logical" name="LWAVE"> F  </i>
   <i type="logical" name="LCHARG"> F  </i>
   <i type="logical" name="LPARD"> F  </i>
   <i type="logical" name="LVTOT"> F  </i>
   <i type="logical" name="LVHAR"> F  </i>
   <i type="logical" name="LELF"> F  </i>
   <i type="logical" name="LOPTICS"> F  </i>
   <v name="STM">      0.00000000      0.00000000      0.00000000      0.00000000      0.00000000      0.00000000      0.00000000</v>
  </separator>
  <separator name="performance" >
   <i type="int" name="NPAR">    40</i>
   <i type="int" name="NSIM">     4</i>
   <i type="int" name="NBLK">    -1</i>
   <i type="logical" name="LPLANE"> T  </i>
   <i type="logical" name="LSCALAPACK"> F  </i>
   <i type="logical" name="LSCAAWARE"> F  </i>
   <i type="logical" name="LSCALU"> F  </i>
   <i type="logical" name="LASYNC"> F  </i>
   <i type="logical" name="LORBITALREAL"> F  </i>
  </separator>
  <separator name="miscellaneous" >
   <i type="int" name="IDIOT">     3</i>
   <i type="logical" name="LMUSIC"> F  </i>
   <v name="POMASS">      7.01000000     24.30500000    208.98000000     32.06600000     16.00000000</v>
   <v name="DARWINR">      0.00000000      0.00000000      0.00000000      0.00000000      0.00000000</v>
   <v name="DARWINV">      1.00000000      1.00000000      1.00000000      1.00000000      1.00000000</v>
   <i type="logical" name="LCORR"> T  </i>
  </separator>
  <i type="logical" name="GGA_COMPAT"> T  </i>
  <i type="logical" name="LBERRY"> F  </i>
  <i type="int" name="ICORELEVEL">     0</i>
  <i type="logical" name="LDAU"> F  </i>
  <i type="int" name="I_CONSTRAINED_M">     0</i>
  <separator name="electronic exchange-correlation" >
   <i type="string" name="GGA">--</i>
   <i type="int" name="VOSKOWN">     0</i>
   <i type="logical" name="LHFCALC"> F  </i>
   <i type="string" name="PRECFOCK"></i>
   <i type="logical" name="LSYMGRAD"> F  </i>
   <i type="logical" name="LHFONE"> F  </i>
   <i type="logical" name="LRHFCALC"> F  </i>
   <i type="logical" name="LTHOMAS"> F  </i>
   <i type="logical" name="LMODELHF"> F  </i>
   <i name="ENCUT4O">     -1.00000000</i>
   <i type="int" name="EXXOEP">     0</i>
   <i type="int" name="FOURORBIT">     0</i>
   <i name="AEXX">      0.00000000</i>
   <i name="HFALPHA">      0.00000000</i>
   <i name="MCALPHA">      0.00000000</i>
   <i name="ALDAX">      1.00000000</i>
   <i name="AGGAX">      1.00000000</i>
   <i name="ALDAC">      1.00000000</i>
   <i name="AGGAC">      1.00000000</i>
   <i type="int" name="NKREDX">     1</i>
   <i type="int" name="NKREDY">     1</i>
   <i type="int" name="NKREDZ">     1</i>
   <i type="logical" name="SHIFTRED"> F  </i>
   <i type="logical" name="ODDONLY"> F  </i>
   <i type="logical" name="EVENONLY"> F  </i>
   <i type="int" name="LMAXFOCK">     0</i>
   <i type="int" name="NMAXFOCKAE">     0</i>
   <i type="logical" name="LFOCKAEDFT"> F  </i>
   <i name="HFSCREEN">      0.00000000</i>
   <i name="HFSCREENC">      0.00000000</i>
   <i type="int" name="NBANDSGWLOW">     0</i>
  </separator>
  <separator name="vdW DFT" >
   <i type="logical" name="LUSE_VDW"> F  </i>
   <i name="Zab_VDW">     -0.84910000</i>
   <i name="PARAM1">      0.12340000</i>
   <i name="PARAM2">      1.00000000</i>
   <i name="PARAM3">      0.00000000</i>
  </separator>
  <separator name="model GW" >
   <i type="int" name="MODEL_GW">     0</i>
   <i name="MODEL_EPS0">     11.39855751</i>
   <i name="MODEL_ALPHA">      1.00000000</i>
  </separator>
  <separator name="linear response parameters" >
   <i type="logical" name="LEPSILON"> F  </i>
   <i type="logical" name="LRPA"> F  </i>
   <i type="logical" name="LNABLA"> F  </i>
   <i type="logical" name="LVEL"> F  </i>
   <i type="int" name="KINTER">     0</i>
   <i name="CSHIFT">      0.10000000</i>
   <i name="OMEGAMAX">     -1.00000000</i>
   <i name="DEG_THRESHOLD">      0.00200000</i>
  </separator>
  <separator name="orbital magnetization" >
   <i type="logical" name="NUCIND"> F  </i>
   <v name="MAGPOS">      0.00000000      0.00000000      0.00000000</v>
   <i type="logical" name="LNICSALL"> T  </i>
   <i type="logical" name="ORBITALMAG"> F  </i>
   <i type="logical" name="LMAGBLOCH"> F  </i>
   <i type="logical" name="LCHIMAG"> F  </i>
   <i type="logical" name="LGAUGE"> T  </i>
   <i type="int" name="MAGATOM">     0</i>
   <v name="MAGDIPOL">      0.00000000      0.00000000      0.00000000</v>
   <v name="AVECCONST">      0.00000000      0.00000000      0.00000000</v>
  </separator>
  <separator name="response functions" >
   <i type="logical" name="LADDER"> F  </i>
   <i type="logical" name="LFXC"> F  </i>
   <i type="logical" name="LHARTREE"> T  </i>
   <i type="int" name="IBSE">     0</i>
   <i type="logical" name="LTCTE"> F  </i>
   <i type="logical" name="LTETE"> F  </i>
   <i type="logical" name="LTRIPLET"> F  </i>
   <i type="logical" name="LFXCEPS"> F  </i>
   <i type="logical" name="L2ORDER"> F  </i>
   <i type="logical" name="LUSEW"> F  </i>
   <i name="ENCUTGW">     -2.00000000</i>
   <i name="ENCUTGWSOFT">     -2.00000000</i>
   <i name="ENCUTLF">     -1.00000000</i>
   <i type="int" name="LMAXMP2">    -1</i>
   <i name="SCISSOR">      0.00000000</i>
   <i type="int" name="NOMEGA">     0</i>
   <i type="int" name="NOMEGAR">     0</i>
   <i type="int" name="NBANDSGW">    -1</i>
   <i type="int" name="NBANDSO">    -1</i>
   <i type="int" name="NBANDSV">    -1</i>
   <i type="int" name="NELM">     1</i>
   <i type="int" name="DIM">     3</i>
   <i type="int" name="ANTIRES">     0</i>
   <i name="OMEGAMAX">    -30.00000000</i>
   <i name="OMEGATL">   -200.00000000</i>
   <i type="int" name="OMEGAGRID">     0</i>
   <i name="CSHIFT">     -0.10000000</i>
   <i type="logical" name="SELFENERGY"> F  </i>
   <i type="logical" name="LSPECTRAL"> F  </i>
   <i type="logical" name="ODDONLYGW"> F  </i>
   <i type="logical" name="EVENONLYGW"> F  </i>
   <i type="int" name="NKREDLFX">     1</i>
   <i type="int" name="NKREDLFY">     1</i>
   <i type="int" name="NKREDLFZ">     1</i>
   <i type="int" name="MAXMEM">  1800</i>
   <i type="int" name="TELESCOPE">     0</i>
  </separator>
 </parameters>
 <atominfo>
  <atoms>      63 </atoms>
  <types>       5 </types>
  <array name="atoms" >
   <dimension dim="1">ion</dimension>
   <field type="string">element</field>
   <field type="int">atomtype</field>
   <set>
    <rc><c>Li</c><c>   1</c></rc>
    <rc><c>Li</c><c>   1</c></rc>
    <rc><c>Li</c><c>   1</c></rc>
    <rc><c>Li</c><c>   1</c></rc>
    <rc><c>Li</c><c>   1</c></rc>
    <rc><c>Li</c><c>   1</c></rc>
    <rc><c>Li</c><c>   1</c></rc>
    <rc><c>Li</c><c>   1</c></rc>
    <rc><c>Li</c><c>   1</c></rc>
    <rc><c>Li</c><c>   1</c></rc>
    <rc><c>Li</c><c>   1</c></rc>
    <rc><c>Li</c><c>   1</c></rc>
    <rc><c>Li</c><c>   1</c></rc>
    <rc><c>Li</c><c>   1</c></rc>
    <rc><c>Mg</c><c>   2</c></rc>
    <rc><c>Bi</c><c>   3</c></rc>
    <rc><c>Bi</c><c>   3</c></rc>
    <rc><c>Bi</c><c>   3</c></rc>
    <rc><c>Bi</c><c>   3</c></rc>
    <rc><c>Bi</c><c>   3</c></rc>
    <rc><c>Bi</c><c>   3</c></rc>
    <rc><c>Bi</c><c>   3</c></rc>
    <rc><c>Bi</c><c>   3</c></rc>
    <rc><c>Bi</c><c>   3</c></rc>
    <rc><c>Bi</c><c>   3</c></rc>
    <rc><c>Bi</c><c>   3</c></rc>
    <rc><c>Bi</c><c>   3</c></rc>
    <rc><c>Bi</c><c>   3</c></rc>
    <rc><c>Bi</c><c>   3</c></rc>
    <rc><c>Bi</c><c>   3</c></rc>
    <rc><c>Bi</c><c>   3</c></rc>
    <rc><c>S </c><c>   4</c></rc>
    <rc><c>S </c><c>   4</c></rc>
    <rc><c>S </c><c>   4</c></rc>
    <rc><c>S </c><c>   4</c></rc>
    <rc><c>S </c><c>   4</c></rc>
    <rc><c>S </c><c>   4</c></rc>
    <rc><c>S </c><c>   4</c></rc>
    <rc><c>S </c><c>   4</c></rc>
    <rc><c>S </c><c>   4</c></rc>
    <rc><c>S </c><c>   4</c></rc>
    <rc><c>S </c><c>   4</c></rc>
    <rc><c>S </c><c>   4</c></rc>
    <rc><c>S </c><c>   4</c></rc>
    <rc><c>S </c><c>   4</c></rc>
    <rc><c>S </c><c>   4</c></rc>
    <rc><c>S </c><c>   4</c></rc>
    <rc><c>O </c><c>   5</c></rc>
    <rc><c>O </c><c>   5</c></rc>
    <rc><c>O </c><c>   5</c></rc>
    <rc><c>O </c><c>   5</c></rc>
    <rc><c>O </c><c>   5</c></rc>
    <rc><c>O </c><c>   5</c></rc>
    <rc><c>O </c><c>   5</c></rc>
    <rc><c>O </c><c>   5</c></rc>
    <rc><c>O </c><c>   5</c></rc>
    <rc><c>O </c><c>   5</c></rc>
    <rc><c>O </c><c>   5</c></rc>
    <rc><c>O </c><c>   5</c></rc>
    <rc><c>O </c><c>   5</c></rc>
    <rc><c>O </c><c>   5</c></rc>
    <rc><c>O </c><c>   5</c></rc>
    <rc><c>O </c><c>   5</c></rc>
   </set>
  </array>
  <array name="atomtypes" >
   <dimension dim="1">type</dimension>
   <field type="int">atomspertype</field>
   <field type="string">element</field>
   <field>mass</field>
   <field>valence</field>
   <field type="string">pseudopotential</field>
   <set>
    <rc><c>  14</c><c>Li</c><c>      7.01000000</c><c>      3.00000000</c><c>  PAW_PBE Li_sv 10Sep2004               </c></rc>
    <rc><c>   1</c><c>Mg</c><c>     24.30500000</c><c>      2.00000000</c><c>  PAW_PBE Mg 13Apr2007                  </c></rc>
    <rc><c>  16</c><c>Bi</c><c>    208.98000000</c><c>     15.00000000</c><c>  PAW_PBE Bi_d 06Sep2000                </c></rc>
    <rc><c>  16</c><c>S </c><c>     32.06600000</c><c>      6.00000000</c><c>  PAW_PBE S 06Sep2000                   </c></rc>
    <rc><c>  16</c><c>O </c><c>     16.00000000</c><c>      6.00000000</c><c>  PAW_PBE O 08Apr2002                   </c></rc>
   </set>
  </array>
 </atominfo>
 <structure name="initialpos" >
  <crystal>
   <varray name="basis" >
    <v>      11.17850000       0.00000000       0.00000000 </v>
    <v>       0.00000000       9.57460000       0.00000000 </v>
    <v>       0.00000000       0.00000000      11.18240000 </v>
   </varray>
   <i name="volume">   1196.84853820 </i>
   <varray name="rec_basis" >
    <v>       0.08945744       0.00000000       0.00000000 </v>
    <v>       0.00000000       0.10444301       0.00000000 </v>
    <v>       0.00000000       0.00000000       0.08942624 </v>
   </varray>
  </crystal>
  <varray name="positions" >
   <v>       0.37539000       0.00017000       0.43687000 </v>
   <v>       0.12461000       0.99983000       0.18687000 </v>
   <v>       0.37461000       0.00017000       0.18687000 </v>
   <v>       0.62539000       0.99983000       0.43687000 </v>
   <v>       0.87539000       0.00017000       0.43687000 </v>
   <v>       0.62461000       0.99983000       0.18687000 </v>
   <v>       0.87461000       0.00017000       0.18687000 </v>
   <v>       0.12539000       0.99983000       0.93687000 </v>
   <v>       0.37539000       0.00017000       0.93687000 </v>
   <v>       0.12461000       0.99983000       0.68687000 </v>
   <v>       0.37461000       0.00017000       0.68687000 </v>
   <v>       0.62539000       0.99983000       0.93687000 </v>
   <v>       0.62461000       0.99983000       0.68687000 </v>
   <v>       0.87461000       0.00017000       0.68687000 </v>
   <v>       0.87539000       0.00017000       0.93687000 </v>
   <v>       0.00013000       0.29519000       0.06282000 </v>
   <v>       0.25013000       0.70481000       0.06282000 </v>
   <v>       0.24987000       0.29519000       0.31282000 </v>
   <v>       0.49987000       0.70481000       0.31282000 </v>
   <v>       0.50013000       0.29519000       0.06282000 </v>
   <v>       0.75013000       0.70481000       0.06282000 </v>
   <v>       0.74987000       0.29519000       0.31282000 </v>
   <v>       0.99987000       0.70481000       0.31282000 </v>
   <v>       0.00013000       0.29519000       0.56282000 </v>
   <v>       0.25013000       0.70481000       0.56282000 </v>
   <v>       0.24987000       0.29519000       0.81282000 </v>
   <v>       0.49987000       0.70481000       0.81282000 </v>
   <v>       0.50013000       0.29519000       0.56282000 </v>
   <v>       0.75013000       0.70481000       0.56282000 </v>
   <v>       0.74987000       0.29519000       0.81282000 </v>
   <v>       0.99987000       0.70481000       0.81282000 </v>
   <v>       0.25005000       0.32677000       0.06286000 </v>
   <v>       0.00005000       0.67323000       0.06286000 </v>
   <v>       0.49995000       0.32677000       0.31286000 </v>
   <v>       0.24995000       0.67323000       0.31286000 </v>
   <v>       0.75005000       0.32677000       0.06286000 </v>
   <v>       0.50005000       0.67323000       0.06286000 </v>
   <v>       0.99995000       0.32677000       0.31286000 </v>
   <v>       0.74995000       0.67323000       0.31286000 </v>
   <v>       0.25005000       0.32677000       0.56286000 </v>
   <v>       0.00005000       0.67323000       0.56286000 </v>
   <v>       0.49995000       0.32677000       0.81286000 </v>
   <v>       0.24995000       0.67323000       0.81286000 </v>
   <v>       0.75005000       0.32677000       0.56286000 </v>
   <v>       0.50005000       0.67323000       0.56286000 </v>
   <v>       0.99995000       0.32677000       0.81286000 </v>
   <v>       0.74995000       0.67323000       0.81286000 </v>
   <v>       0.49987000       0.07798000       0.06246000 </v>
   <v>       0.00013000       0.92202000       0.31246000 </v>
   <v>       0.24987000       0.92202000       0.06246000 </v>
   <v>       0.25013000       0.07798000       0.31246000 </v>
   <v>       0.99987000       0.07798000       0.06246000 </v>
   <v>       0.50013000       0.92202000       0.31246000 </v>
   <v>       0.74987000       0.92202000       0.06246000 </v>
   <v>       0.75013000       0.07798000       0.31246000 </v>
   <v>       0.49987000       0.07798000       0.56246000 </v>
   <v>       0.00013000       0.92202000       0.81246000 </v>
   <v>       0.24987000       0.92202000       0.56246000 </v>
   <v>       0.25013000       0.07798000       0.81246000 </v>
   <v>       0.99987000       0.07798000       0.56246000 </v>
   <v>       0.50013000       0.92202000       0.81246000 </v>
   <v>       0.74987000       0.92202000       0.56246000 </v>
   <v>       0.75013000       0.07798000       0.81246000 </v>
  </varray>
 </structure>
 <calculation>
  <scstep>
   <time name="dav">   44.98   45.15</time>
   <time name="total">   45.07   45.27</time>
   <energy>
    <i name="alphaZ">   1086.17722071 </i>
    <i name="ewald"> -31342.54087840 </i>
    <i name="hartreedc"> -12718.78437264 </i>
    <i name="XCdc">   1542.80643221 </i>
    <i name="pawpsdc">  37012.13516878 </i>
    <i name="pawaedc"> -36680.30965123 </i>
    <i name="eentropy">      0.00000000 </i>
    <i name="bandstr">   1332.88980377 </i>
    <i name="atom">  45556.09114881 </i>
    <i name="e_fr_energy">   5788.46487202 </i>
    <i name="e_wo_entrp">   5788.46487202 </i>
    <i name="e_0_energy">   5788.46487202 </i>
   </energy>
  </scstep>
  <scstep>
   <time name="dav">   45.96   46.07</time>
   <time name="total">   45.98   46.11</time>
   <energy>
    <i name="e_fr_energy">    664.59589034 </i>
    <i name="e_wo_entrp">    664.59589034 </i>
    <i name="e_0_energy">    664.59589034 </i>
   </energy>
  </scstep>
  <scstep>
   <time name="dav">   51.30   51.69</time>
   <time name="total">   51.31   51.88</time>
   <energy>
    <i name="e_fr_energy">   -266.64468496 </i>
    <i name="e_wo_entrp">   -266.64468496 </i>
    <i name="e_0_energy">   -266.64468496 </i>
   </energy>
  </scstep>
  <scstep>
   <time name="dav">   59.94   60.50</time>
   <time name="total">   59.95   60.61</time>
   <energy>
    <i name="e_fr_energy">   -360.25438337 </i>
    <i name="e_wo_entrp">   -360.25438337 </i>
    <i name="e_0_energy">   -360.25438337 </i>
   </energy>
  </scstep>
  <scstep>
   <time name="dav">   72.54   73.31</time>
   <time name="total">   73.01   73.88</time>
   <energy>
    <i name="e_fr_energy">   -366.99442735 </i>
    <i name="e_wo_entrp">   -366.99442735 </i>
    <i name="e_0_energy">   -366.99442735 </i>
   </energy>
  </scstep>
  <scstep>
   <time name="dav">   66.93   67.35</time>
   <time name="total">   67.46   67.96</time>
   <energy>
    <i name="e_fr_energy">   -305.84804771 </i>
    <i name="e_wo_entrp">   -305.84804771 </i>
    <i name="e_0_energy">   -305.84804771 </i>
   </energy>
  </scstep>
  <scstep>
   <time name="dav">   49.43   50.29</time>
   <time name="total">   49.96   50.88</time>
   <energy>
    <i name="e_fr_energy">   -307.57098307 </i>
    <i name="e_wo_entrp">   -307.57098307 </i>
    <i name="e_0_energy">   -307.57098307 </i>
   </energy>
  </scstep>
  <scstep>
   <time name="dav">   54.75   55.14</time>
   <time name="total">   55.27   55.71</time>
   <energy>
    <i name="e_fr_energy">   -305.97790394 </i>
    <i name="e_wo_entrp">   -305.97790394 </i>
    <i name="e_0_energy">   -305.97790394 </i>
   </energy>
  </scstep>
  <scstep>
   <time name="dav">   63.33   63.94</time>
   <time name="total">   63.84   64.50</time>
   <energy>
    <i name="e_fr_energy">   -305.35061599 </i>
    <i name="e_wo_entrp">   -305.35061599 </i>
    <i name="e_0_energy">   -305.35061599 </i>
   </energy>
  </scstep>
  <scstep>
   <time name="dav">   57.60   58.10</time>
   <time name="total">   58.11   58.65</time>
   <energy>
    <i name="e_fr_energy">   -305.34723535 </i>
    <i name="e_wo_entrp">   -305.34723535 </i>
    <i name="e_0_energy">   -305.34723535 </i>
   </energy>
  </scstep>
  <scstep>
   <time name="dav">   58.70   59.57</time>
   <time name="total">   59.22   60.15</time>
   <energy>
    <i name="e_fr_energy">   -305.35717982 </i>
    <i name="e_wo_entrp">   -305.35717982 </i>
    <i name="e_0_energy">   -305.35717982 </i>
   </energy>
  </scstep>
  <scstep>
   <time name="dav">   57.45   57.96</time>
   <time name="total">   57.95   58.49</time>
   <energy>
    <i name="e_fr_energy">   -305.36129881 </i>
    <i name="e_wo_entrp">   -305.36129881 </i>
    <i name="e_0_energy">   -305.36129881 </i>
   </energy>
  </scstep>
  <scstep>
   <time name="dav">   53.62   53.95</time>
   <time name="total">   54.12   54.55</time>
   <energy>
    <i name="e_fr_energy">   -305.36218630 </i>
    <i name="e_wo_entrp">   -305.36218630 </i>
    <i name="e_0_energy">   -305.36218630 </i>
   </energy>
  </scstep>
  <scstep>
   <time name="dav">   62.13   62.61</time>
   <time name="total">   62.66   63.20</time>
   <energy>
    <i name="e_fr_energy">   -305.36236543 </i>
    <i name="e_wo_entrp">   -305.36236543 </i>
    <i name="e_0_energy">   -305.36236543 </i>
   </energy>
  </scstep>
  <scstep>
   <time name="dav">   54.52   54.69</time>
   <time name="total">   55.05   55.27</time>
   <energy>
    <i name="e_fr_energy">   -305.36239729 </i>
    <i name="e_wo_entrp">   -305.36239729 </i>
    <i name="e_0_energy">   -305.36239729 </i>
   </energy>
  </scstep>
  <scstep>
   <time name="dav">   55.44   55.92</time>
   <time name="total">   55.94   56.52</time>
   <energy>
    <i name="e_fr_energy">   -305.36240627 </i>
    <i name="e_wo_entrp">   -305.36240627 </i>
    <i name="e_0_energy">   -305.36240627 </i>
   </energy>
  </scstep>
  <scstep>
   <time name="dav">   58.41   58.63</time>
   <time name="total">   58.92   59.21</time>
   <energy>
    <i name="e_fr_energy">   -305.36240803 </i>
    <i name="e_wo_entrp">   -305.36240803 </i>
    <i name="e_0_energy">   -305.36240803 </i>
   </energy>
  </scstep>
  <scstep>
   <time name="dav">   42.75   43.53</time>
   <time name="total">   42.82   43.63</time>
   <energy>
    <i name="alphaZ">   1086.17722071 </i>
    <i name="ewald"> -31342.54087840 </i>
    <i name="hartreedc"> -12952.87440805 </i>
    <i name="XCdc">   1565.11781825 </i>
    <i name="pawpsdc">  44045.79449127 </i>
    <i name="pawaedc"> -43690.34603431 </i>
    <i name="eentropy">      0.00000000 </i>
    <i name="bandstr">  -4572.78176687 </i>
    <i name="atom">  45556.09114881 </i>
    <i name="e_fr_energy">   -305.36240859 </i>
    <i name="e_wo_entrp">   -305.36240859 </i>
    <i name="e_0_energy">   -305.36240859 </i>
   </energy>
  </scstep>
  <structure>
   <crystal>
    <varray name="basis" >
     <v>      11.17850000       0.00000000       0.00000000 </v>
     <v>       0.00000000       9.57460000       0.00000000 </v>
     <v>       0.00000000       0.00000000      11.18240000 </v>
    </varray>
    <i name="volume">   1196.84853820 </i>
    <varray name="rec_basis" >
     <v>       0.08945744       0.00000000       0.00000000 </v>
     <v>       0.00000000       0.10444301       0.00000000 </v>
     <v>       0.00000000       0.00000000       0.08942624 </v>
    </varray>
   </crystal>
   <varray name="positions" >
    <v>       0.37539000       0.00017000       0.43687000 </v>
    <v>       0.12461000       0.99983000       0.18687000 </v>
    <v>       0.37461000       0.00017000       0.18687000 </v>
    <v>       0.62539000       0.99983000       0.43687000 </v>
    <v>       0.87539000       0.00017000       0.43687000 </v>
    <v>       0.62461000       0.99983000       0.18687000 </v>
    <v>       0.87461000       0.00017000       0.18687000 </v>
    <v>       0.12539000       0.99983000       0.93687000 </v>
    <v>       0.37539000       0.00017000       0.93687000 </v>
    <v>       0.12461000       0.99983000       0.68687000 </v>
    <v>       0.37461000       0.00017000       0.68687000 </v>
    <v>       0.62539000       0.99983000       0.93687000 </v>
    <v>       0.62461000       0.99983000       0.68687000 </v>
    <v>       0.87461000       0.00017000       0.68687000 </v>
    <v>       0.87539000       0.00017000       0.93687000 </v>
    <v>       0.00013000       0.29519000       0.06282000 </v>
    <v>       0.25013000       0.70481000       0.06282000 </v>
    <v>       0.24987000       0.29519000       0.31282000 </v>
    <v>       0.49987000       0.70481000       0.31282000 </v>
    <v>       0.50013000       0.29519000       0.06282000 </v>
    <v>       0.75013000       0.70481000       0.06282000 </v>
    <v>       0.74987000       0.29519000       0.31282000 </v>
    <v>       0.99987000       0.70481000       0.31282000 </v>
    <v>       0.00013000       0.29519000       0.56282000 </v>
    <v>       0.25013000       0.70481000       0.56282000 </v>
    <v>       0.24987000       0.29519000       0.81282000 </v>
    <v>       0.49987000       0.70481000       0.81282000 </v>
    <v>       0.50013000       0.29519000       0.56282000 </v>
    <v>       0.75013000       0.70481000       0.56282000 </v>
    <v>       0.74987000       0.29519000       0.81282000 </v>
    <v>       0.99987000       0.70481000       0.81282000 </v>
    <v>       0.25005000       0.32677000       0.06286000 </v>
    <v>       0.00005000       0.67323000       0.06286000 </v>
    <v>       0.49995000       0.32677000       0.31286000 </v>
    <v>       0.24995000       0.67323000       0.31286000 </v>
    <v>       0.75005000       0.32677000       0.06286000 </v>
    <v>       0.50005000       0.67323000       0.06286000 </v>
    <v>       0.99995000       0.32677000       0.31286000 </v>
    <v>       0.74995000       0.67323000       0.31286000 </v>
    <v>       0.25005000       0.32677000       0.56286000 </v>
    <v>       0.00005000       0.67323000       0.56286000 </v>
    <v>       0.49995000       0.32677000       0.81286000 </v>
    <v>       0.24995000       0.67323000       0.81286000 </v>
    <v>       0.75005000       0.32677000       0.56286000 </v>
    <v>       0.50005000       0.67323000       0.56286000 </v>
    <v>       0.99995000       0.32677000       0.81286000 </v>
    <v>       0.74995000       0.67323000       0.81286000 </v>
    <v>       0.49987000       0.07798000       0.06246000 </v>
    <v>       0.00013000       0.92202000       0.31246000 </v>
    <v>       0.24987000       0.92202000       0.06246000 </v>
    <v>       0.25013000       0.07798000       0.31246000 </v>
    <v>       0.99987000       0.07798000       0.06246000 </v>
    <v>       0.50013000       0.92202000       0.31246000 </v>
    <v>       0.74987000       0.92202000       0.06246000 </v>
    <v>       0.75013000       0.07798000       0.31246000 </v>
    <v>       0.49987000       0.07798000       0.56246000 </v>
    <v>       0.00013000       0.92202000       0.81246000 </v>
    <v>       0.24987000       0.92202000       0.56246000 </v>
    <v>       0.25013000       0.07798000       0.81246000 </v>
    <v>       0.99987000       0.07798000       0.56246000 </v>
    <v>       0.50013000       0.92202000       0.81246000 </v>
    <v>       0.74987000       0.92202000       0.56246000 </v>
    <v>       0.75013000       0.07798000       0.81246000 </v>
   </varray>
  </structure>
  <varray name="forces" >
   <v>      -0.53407234      -0.00075153       0.00497038 </v>
   <v>       0.13829461      -0.07068553       0.65951301 </v>
   <v>      -0.18666048       0.05922830       0.24306477 </v>
   <v>      -0.04998078       0.00035707       0.00517175 </v>
   <v>       0.51615267      -0.00155073       0.00489963 </v>
   <v>      -0.12017291       0.06962156       0.16275666 </v>
   <v>       0.19610876      -0.05995856       0.72929575 </v>
   <v>       0.52887999       0.00032947       0.00661533 </v>
   <v>      -0.03739198      -0.00062322       0.00607332 </v>
   <v>       0.13833452       0.07100054      -0.64884128 </v>
   <v>      -0.18658511      -0.06047998      -0.23064119 </v>
   <v>      -0.54252104      -0.00089725       0.00656981 </v>
   <v>      -0.12056552      -0.06927136      -0.15228261 </v>
   <v>       0.19590776       0.05784837      -0.71779134 </v>
   <v>       0.04040786      -0.00441915       0.03365459 </v>
   <v>       0.28595835       1.06816911       0.35046589 </v>
   <v>       0.06442527      -0.02393317       0.19578768 </v>
   <v>      -0.13783899      -1.05602808       0.28260714 </v>
   <v>      -0.18904271       0.01116957       0.13537920 </v>
   <v>      -0.22092098       0.02366791       0.15329913 </v>
   <v>      -0.14570716      -1.05623597       0.30247437 </v>
   <v>       0.04616546       0.02277982       0.19453676 </v>
   <v>       0.30173166       1.01643626       0.33748958 </v>
   <v>       0.28584757      -1.00377596      -0.35147647 </v>
   <v>      -0.14949609       1.04762645      -0.29462585 </v>
   <v>       0.07854801       0.02472976      -0.20198746 </v>
   <v>      -0.20902681      -0.02443238      -0.16036971 </v>
   <v>      -0.20103857      -0.01137602      -0.14551961 </v>
   <v>       0.03326011      -0.02387756      -0.20597933 </v>
   <v>      -0.14085640       1.06868270      -0.30733026 </v>
   <v>       0.29819928      -1.07705622      -0.35409226 </v>
   <v>      -0.08916503       0.18625684      -0.17518372 </v>
   <v>      -0.20656464      -0.08810233      -0.29837719 </v>
   <v>       0.18302181       0.21978957      -0.08192772 </v>
   <v>       0.11581869      -0.21969081      -0.20048460 </v>
   <v>       0.12525594       0.04674243      -0.20102665 </v>
   <v>       0.16309404      -0.14360215      -0.07388134 </v>
   <v>      -0.18931562       0.18372494      -0.28762814 </v>
   <v>      -0.10136466      -0.18749158      -0.16731721 </v>
   <v>       0.11221478       0.21862082       0.20069464 </v>
   <v>      -0.18935825      -0.18263766       0.28987324 </v>
   <v>       0.16532083       0.14310042       0.07243101 </v>
   <v>      -0.08780614      -0.18571915       0.17220594 </v>
   <v>      -0.10064230       0.18613805       0.16984943 </v>
   <v>       0.18099117      -0.21977178       0.08297716 </v>
   <v>      -0.20755056       0.08436950       0.29520649 </v>
   <v>       0.12723097      -0.04514068       0.19909035 </v>
   <v>       0.17271493      -0.08154554      -0.09086200 </v>
   <v>      -0.73254804      -0.79790728      -0.81153356 </v>
   <v>      -0.07384066       0.03281369      -0.16392159 </v>
   <v>       0.64078259       0.87528931      -0.73242434 </v>
   <v>      -0.65495419      -0.88742984      -0.73140328 </v>
   <v>       0.15330247      -0.03151221      -0.08811859 </v>
   <v>       0.58312144       0.93099694      -0.66937515 </v>
   <v>      -0.07667956      -0.03093463      -0.16734884 </v>
   <v>       0.16412427       0.03176915       0.08647229 </v>
   <v>      -0.65978792       0.88904272       0.71500310 </v>
   <v>       0.65019688      -0.87046537       0.73563853 </v>
   <v>      -0.08534116      -0.03321724       0.15959497 </v>
   <v>      -0.71983558       0.79294431       0.81597334 </v>
   <v>       0.16268230       0.08299203       0.08752917 </v>
   <v>      -0.06419374       0.03296455       0.16668705 </v>
   <v>       0.56273092      -0.92868124       0.64789985 </v>
  </varray>
  <varray name="stress" >
   <v>      -8.20747453      -0.06012928       0.01206984 </v>
   <v>      -0.06012924     -14.61842716       0.05173228 </v>
   <v>       0.01207002       0.05173241      -9.14701323 </v>
  </varray>
  <energy>
   <i name="e_fr_energy">   -322.44479161 </i>
   <i name="e_wo_entrp">   -322.44479161 </i>
   <i name="e_0_energy">      0.00000000 </i>
  </energy>
  <time name="totalsc"> 1109.58 1120.33</time>
 </calculation>
 <calculation>
  <scstep>
   <time name="dav">   47.19   47.35</time>
   <time name="total">   47.71   47.90</time>
   <energy>
    <i name="alphaZ">   1106.29194636 </i>
    <i name="ewald"> -31539.29018746 </i>
    <i name="hartreedc"> -13024.47587819 </i>
    <i name="XCdc">   1576.02332997 </i>
    <i name="pawpsdc">  44045.90768796 </i>
    <i name="pawaedc"> -43690.45996614 </i>
    <i name="eentropy">      0.00000000 </i>
    <i name="bandstr">  -4335.69517948 </i>
    <i name="atom">  45556.09114881 </i>
    <i name="e_fr_energy">   -305.60709817 </i>
    <i name="e_wo_entrp">   -305.60709817 </i>
    <i name="e_0_energy">   -305.60709817 </i>
   </energy>
  </scstep>
  <scstep>
   <time name="dav">   51.96   52.42</time>
   <time name="total">   52.47   53.02</time>
   <energy>
    <i name="e_fr_energy">   -306.10111765 </i>
    <i name="e_wo_entrp">   -306.10111765 </i>
    <i name="e_0_energy">   -306.10111765 </i>
   </energy>
  </scstep>
  <scstep>
   <time name="dav">   65.74   66.18</time>
   <time name="total">   66.25   66.78</time>
   <energy>
    <i name="e_fr_energy">   -305.87161779 </i>
    <i name="e_wo_entrp">   -305.87161779 </i>
    <i name="e_0_energy">   -305.87161779 </i>
   </energy>
  </scstep>
  <scstep>
   <time name="dav">   62.59   63.20</time>
   <time name="total">   63.09   63.78</time>
   <energy>
    <i name="e_fr_energy">   -305.81600888 </i>
    <i name="e_wo_entrp">   -305.81600888 </i>
    <i name="e_0_energy">   -305.81600888 </i>
   </energy>
  </scstep>
  <scstep>
   <time name="dav">   54.07   54.41</time>
   <time name="total">   54.59   55.00</time>
   <energy>
    <i name="e_fr_energy">   -305.81806125 </i>
    <i name="e_wo_entrp">   -305.81806125 </i>
    <i name="e_0_energy">   -305.81806125 </i>
   </energy>
  </scstep>
  <scstep>
   <time name="dav">   65.28   65.42</time>
   <time name="total">   65.81   66.02</time>
   <energy>
    <i name="e_fr_energy">   -305.81692975 </i>
    <i name="e_wo_entrp">   -305.81692975 </i>
    <i name="e_0_energy">   -305.81692975 </i>
   </energy>
  </scstep>
  <scstep>
   <time name="dav">   64.47   65.01</time>
   <time name="total">   64.98   65.61</time>
   <energy>
    <i name="e_fr_energy">   -305.81660483 </i>
    <i name="e_wo_entrp">   -305.81660483 </i>
    <i name="e_0_energy">   -305.81660483 </i>
   </energy>
  </scstep>
  <scstep>
   <time name="dav">   60.94   61.35</time>
   <time name="total">   61.46   61.92</time>
   <energy>
    <i name="e_fr_energy">   -305.81667654 </i>
    <i name="e_wo_entrp">   -305.81667654 </i>
    <i name="e_0_energy">   -305.81667654 </i>
   </energy>
  </scstep>
  <scstep>
   <time name="dav">   61.46   61.96</time>
   <time name="total">   61.97   62.54</time>
   <energy>
    <i name="e_fr_energy">   -305.81668227 </i>
    <i name="e_wo_entrp">   -305.81668227 </i>
    <i name="e_0_energy">   -305.81668227 </i>
   </energy>
  </scstep>
  <scstep>
   <time name="dav">   52.65   53.51</time>
   <time name="total">   53.15   54.06</time>
   <energy>
    <i name="e_fr_energy">   -305.81668393 </i>
    <i name="e_wo_entrp">   -305.81668393 </i>
    <i name="e_0_energy">   -305.81668393 </i>
   </energy>
  </scstep>
  <scstep>
   <time name="dav">   60.53   61.06</time>
   <time name="total">   61.04   61.63</time>
   <energy>
    <i name="e_fr_energy">   -305.81668184 </i>
    <i name="e_wo_entrp">   -305.81668184 </i>
    <i name="e_0_energy">   -305.81668184 </i>
   </energy>
  </scstep>
  <scstep>
   <time name="dav">   46.56   47.00</time>
   <time name="total">   46.62   47.15</time>
   <energy>
    <i name="alphaZ">   1106.29194636 </i>
    <i name="ewald"> -31539.29018746 </i>
    <i name="hartreedc"> -12851.33298112 </i>
    <i name="XCdc">   1567.84035458 </i>
    <i name="pawpsdc">  44414.94991963 </i>
    <i name="pawaedc"> -44062.31276490 </i>
    <i name="eentropy">      0.00000000 </i>
    <i name="bandstr">  -4498.05411753 </i>
    <i name="atom">  45556.09114881 </i>
    <i name="e_fr_energy">   -305.81668163 </i>
    <i name="e_wo_entrp">   -305.81668163 </i>
    <i name="e_0_energy">   -305.81668163 </i>
   </energy>
  </scstep>
  <structure>
   <crystal>
    <varray name="basis" >
     <v>      11.12601776      -0.00038449       0.00007718 </v>
     <v>      -0.00032933       9.49453540       0.00028334 </v>
     <v>       0.00007721       0.00033092      11.12388953 </v>
    </varray>
    <i name="volume">   1175.08730233 </i>
    <varray name="rec_basis" >
     <v>       0.08987942       0.00000312      -0.00000062 </v>
     <v>       0.00000364       0.10532374      -0.00000313 </v>
     <v>      -0.00000062      -0.00000268       0.08989661 </v>
    </varray>
   </crystal>
   <varray name="positions" >
    <v>       0.37308512       0.00016621       0.43689144 </v>
    <v>       0.12520683       0.99947384       0.18971524 </v>
    <v>       0.37380444       0.00046843       0.18791862 </v>
    <v>       0.62517430       0.99983180       0.43689231 </v>
    <v>       0.87761754       0.00016219       0.43689114 </v>
    <v>       0.62409137       0.00018080       0.18757216 </v>
    <v>       0.87545634      -0.00013211       0.19001630 </v>
    <v>       0.12767247       0.99983166       0.93689854 </v>
    <v>       0.37522863       0.00016686       0.93689620 </v>
    <v>       0.12520701       0.00018774       0.68407080 </v>
    <v>       0.37380476      -0.00013473       0.68587498 </v>
    <v>       0.62304866       0.99982548       0.93689834 </v>
    <v>       0.62408968       0.99948097       0.68621303 </v>
    <v>       0.87545547       0.00046148       0.68377333 </v>
    <v>       0.87556439       0.00014773       0.93701519 </v>
    <v>       0.00136410       0.30057209       0.06433197 </v>
    <v>       0.25040804       0.70468941       0.06366466 </v>
    <v>       0.24927513       0.28986909       0.31403921 </v>
    <v>       0.49905416       0.70486628       0.31340405 </v>
    <v>       0.49917658       0.29530925       0.06348136 </v>
    <v>       0.74950118       0.69948804       0.06412492 </v>
    <v>       0.75006923       0.29530478       0.31365926 </v>
    <v>       0.00117217       0.70993142       0.31427598 </v>
    <v>       0.00136362       0.29013237       0.56130367 </v>
    <v>       0.24948483       0.71008858       0.56154894 </v>
    <v>       0.25020899       0.29531460       0.81194859 </v>
    <v>       0.49896791       0.70468689       0.81212814 </v>
    <v>       0.49926238       0.29513268       0.56219221 </v>
    <v>       0.75027354       0.70468969       0.56193137 </v>
    <v>       0.74926211       0.30057467       0.81149413 </v>
    <v>       0.00115693       0.69938314       0.81129239 </v>
    <v>       0.24966519       0.32770848       0.06210423 </v>
    <v>      -0.00084146       0.67278609       0.06157275 </v>
    <v>       0.50073986       0.32787743       0.31250655 </v>
    <v>       0.25044983       0.67212306       0.31199508 </v>
    <v>       0.75059056       0.32700552       0.06199274 </v>
    <v>       0.50075386       0.67250645       0.06254126 </v>
    <v>       0.99913298       0.32769572       0.31161913 </v>
    <v>       0.74951254       0.67228530       0.31213817 </v>
    <v>       0.25053428       0.32787154       0.56372583 </v>
    <v>      -0.00076721       0.67230976       0.56411056 </v>
    <v>       0.50066347       0.32749103       0.81317248 </v>
    <v>       0.24957106       0.67229423       0.81360292 </v>
    <v>       0.74961566       0.32770788       0.56359276 </v>
    <v>       0.50083110       0.67212266       0.56321798 </v>
    <v>       0.99905428       0.32719510       0.81413357 </v>
    <v>       0.75049909       0.67300255       0.81371891 </v>
    <v>       0.50061538       0.07756912       0.06206801 </v>
    <v>      -0.00303143       0.91799966       0.30895892 </v>
    <v>       0.24955133       0.92218534       0.06175282 </v>
    <v>       0.25289540       0.08239024       0.30930020 </v>
    <v>       0.99704344       0.07350859       0.05930461 </v>
    <v>       0.50079160       0.92186122       0.31207984 </v>
    <v>       0.75238656       0.92671093       0.05957221 </v>
    <v>       0.74979908       0.07782413       0.31173803 </v>
    <v>       0.50057831       0.07814007       0.56283306 </v>
    <v>      -0.00271742       0.92649954       0.81554464 </v>
    <v>       0.25267603       0.91763407       0.56563366 </v>
    <v>       0.24976170       0.07781263       0.81314852 </v>
    <v>       0.99676343       0.08197534       0.56598024 </v>
    <v>       0.50083208       0.92243816       0.81283761 </v>
    <v>       0.74959296       0.92218610       0.56317911 </v>
    <v>       0.75255856       0.07330074       0.81525514 </v>
   </varray>
  </structure>
  <varray name="forces" >
   <v>      -0.32979126      -0.00260431       0.00506278 </v>
   <v>       0.02367767      -0.03812894       0.34570255 </v>
   <v>      -0.07956168       0.02597346       0.11496086 </v>
   <v>      -0.03005638       0.00115708       0.00592483 </v>
   <v>       0.31307073      -0.00007376       0.00509980 </v>
   <v>      -0.00162239       0.03998861       0.02944465 </v>
   <v>       0.09100814      -0.02740468       0.32735710 </v>
   <v>       0.23672541      -0.00051125       0.00653575 </v>
   <v>      -0.02133396      -0.00126518       0.00601487 </v>
   <v>       0.02293288       0.04083494      -0.33500629 </v>
   <v>      -0.07849888      -0.02662833      -0.10215786 </v>
   <v>      -0.24577549       0.00217587       0.00697433 </v>
   <v>      -0.00313179      -0.03890572      -0.01833512 </v>
   <v>       0.08707467       0.02240863      -0.30871621 </v>
   <v>      -0.04369911      -0.00525951       0.02939228 </v>
   <v>       0.06708664      -0.04610616       0.06552959 </v>
   <v>      -0.00332208      -0.27879689       0.05186248 </v>
   <v>      -0.07373527       1.17674889       0.14895418 </v>
   <v>      -0.05078399      -0.35064486       0.05406632 </v>
   <v>      -0.05948601       0.21827818       0.06861782 </v>
   <v>      -0.01869565       0.08971089       0.08113170 </v>
   <v>      -0.01755882       0.28056742       0.03710336 </v>
   <v>       0.15652519      -1.04342256       0.13381186 </v>
   <v>       0.14711869       1.03715302      -0.13571876 </v>
   <v>      -0.07922593      -1.17586280      -0.15137774 </v>
   <v>       0.00493299       0.27903307      -0.05980894 </v>
   <v>      -0.05174039      -0.21732626      -0.07650207 </v>
   <v>      -0.06063991       0.35131687      -0.06215179 </v>
   <v>      -0.02716798      -0.27891642      -0.04478090 </v>
   <v>      -0.01053158      -0.08865611      -0.09058304 </v>
   <v>       0.07882864       0.04574324      -0.07544984 </v>
   <v>      -0.03635732       0.18680559      -0.06517262 </v>
   <v>      -0.09167099      -0.21303090      -0.11929350 </v>
   <v>       0.07728751       0.20580910      -0.03751264 </v>
   <v>       0.06196210      -0.13131518      -0.10417036 </v>
   <v>       0.05386767       0.18428186      -0.08398721 </v>
   <v>       0.06625632      -0.15581067      -0.02786124 </v>
   <v>      -0.08958701       0.11010744      -0.13807238 </v>
   <v>      -0.03996439      -0.18642394      -0.07112107 </v>
   <v>       0.06133289       0.13036759       0.10307247 </v>
   <v>      -0.08861001      -0.11000445       0.13782587 </v>
   <v>       0.06619217       0.15617688       0.02735038 </v>
   <v>      -0.03559291      -0.18641483       0.06409530 </v>
   <v>      -0.04027562       0.18616799       0.07088142 </v>
   <v>       0.07647348      -0.20544440       0.03742278 </v>
   <v>      -0.09155115       0.21091157       0.11871412 </v>
   <v>       0.05520572      -0.18403995       0.08378197 </v>
   <v>       0.01513188      -0.22323965      -0.00989499 </v>
   <v>      -0.51835070       1.19795188      -0.52999227 </v>
   <v>       0.00193381       0.25980454      -0.00814349 </v>
   <v>       0.50424132      -1.32140311      -0.53254134 </v>
   <v>      -0.17276120       0.35508583      -0.18078894 </v>
   <v>       0.01007934       0.32102725      -0.00971181 </v>
   <v>       0.20365452      -0.35513129      -0.21004600 </v>
   <v>      -0.01121226      -0.26162668      -0.00655287 </v>
   <v>       0.01832903      -0.32113944       0.00548222 </v>
   <v>      -0.17745624      -0.36166554       0.17351294 </v>
   <v>       0.50735690       1.31548527       0.52420336 </v>
   <v>      -0.00515038      -0.25783590       0.00481483 </v>
   <v>      -0.50718370      -1.18148661       0.51851527 </v>
   <v>       0.00605685       0.22040281       0.00576251 </v>
   <v>      -0.00321771       0.25802508       0.00158222 </v>
   <v>       0.18095703       0.36702542       0.19488650 </v>
  </varray>
  <varray name="stress" >
   <v>       3.54059408      -0.04414110       0.01039362 </v>
   <v>      -0.04414099       6.28079860       0.00751588 </v>
   <v>       0.01039317       0.00751594       3.87257276 </v>
  </varray>
  <energy>
   <i name="e_fr_energy">   -323.13859135 </i>
   <i name="e_wo_entrp">   -323.13859135 </i>
   <i name="e_0_energy">      0.00000000 </i>
  </energy>
  <time name="totalsc">  784.91  792.10</time>
 </calculation>
 <calculation>
  <scstep>
   <time name="dav">   54.20   54.47</time>
   <time name="total">   54.71   54.98</time>
   <energy>
    <i name="alphaZ">   1103.90545362 </i>
    <i name="ewald"> -31517.24872563 </i>
    <i name="hartreedc"> -12842.02047581 </i>
    <i name="XCdc">   1566.54377430 </i>
    <i name="pawpsdc">  44414.90209164 </i>
    <i name="pawaedc"> -44062.26924473 </i>
    <i name="eentropy">      0.00000000 </i>
    <i name="bandstr">  -4525.76977462 </i>
    <i name="atom">  45556.09114881 </i>
    <i name="e_fr_energy">   -305.86575242 </i>
    <i name="e_wo_entrp">   -305.86575242 </i>
    <i name="e_0_energy">   -305.86575242 </i>
   </energy>
  </scstep>
  <scstep>
   <time name="dav">   52.55   53.03</time>
   <time name="total">   53.06   53.64</time>
   <energy>
    <i name="e_fr_energy">   -305.86329241 </i>
    <i name="e_wo_entrp">   -305.86329241 </i>
    <i name="e_0_energy">   -305.86329241 </i>
   </energy>
  </scstep>
  <scstep>
   <time name="dav">   62.82   63.77</time>
   <time name="total">   63.33   64.42</time>
   <energy>
    <i name="e_fr_energy">   -305.86008825 </i>
    <i name="e_wo_entrp">   -305.86008825 </i>
    <i name="e_0_energy">   -305.86008825 </i>
   </energy>
  </scstep>
  <scstep>
   <time name="dav">   60.48   61.40</time>
   <time name="total">   60.97   62.03</time>
   <energy>
    <i name="e_fr_energy">   -305.85956326 </i>
    <i name="e_wo_entrp">   -305.85956326 </i>
    <i name="e_0_energy">   -305.85956326 </i>
   </energy>
  </scstep>
  <scstep>
   <time name="dav">   58.87   59.28</time>
   <time name="total">   59.37   59.80</time>
   <energy>
    <i name="e_fr_energy">   -305.85954460 </i>
    <i name="e_wo_entrp">   -305.85954460 </i>
    <i name="e_0_energy">   -305.85954460 </i>
   </energy>
  </scstep>
  <scstep>
   <time name="dav">   56.94   57.43</time>
   <time name="total">   57.46   58.04</time>
   <energy>
    <i name="e_fr_energy">   -305.85950404 </i>
    <i name="e_wo_entrp">   -305.85950404 </i>
    <i name="e_0_energy">   -305.85950404 </i>
   </energy>
  </scstep>
  <scstep>
   <time name="dav">   70.34   71.03</time>
   <time name="total">   70.84   71.62</time>
   <energy>
    <i name="e_fr_energy">   -305.85948620 </i>
    <i name="e_wo_entrp">   -305.85948620 </i>
    <i name="e_0_energy">   -305.85948620 </i>
   </energy>
  </scstep>
  <scstep>
   <time name="dav">   51.58   52.37</time>
   <time name="total">   51.64   52.47</time>
   <energy>
    <i name="alphaZ">   1103.90545362 </i>
    <i name="ewald"> -31517.24872563 </i>
    <i name="hartreedc"> -12862.35812537 </i>
    <i name="XCdc">   1567.50642189 </i>
    <i name="pawpsdc">  44366.85559509 </i>
    <i name="pawaedc"> -44013.81533174 </i>
    <i name="eentropy">      0.00000000 </i>
    <i name="bandstr">  -4506.79592251 </i>
    <i name="atom">  45556.09114881 </i>
    <i name="e_fr_energy">   -305.85948584 </i>
    <i name="e_wo_entrp">   -305.85948584 </i>
    <i name="e_0_energy">   -305.85948584 </i>
   </energy>
  </scstep>
  <structure>
   <crystal>
    <varray name="basis" >
     <v>      11.13217652      -0.00033937       0.00006812 </v>
     <v>      -0.00029068       9.50393093       0.00025009 </v>
     <v>       0.00006815       0.00029208      11.13075569 </v>
    </varray>
    <i name="volume">   1177.62768050 </i>
    <varray name="rec_basis" >
     <v>       0.08982969       0.00000275      -0.00000055 </v>
     <v>       0.00000321       0.10521962      -0.00000276 </v>
     <v>      -0.00000055      -0.00000236       0.08984116 </v>
    </varray>
   </crystal>
   <varray name="positions" >
    <v>       0.37335687       0.00016667       0.43688891 </v>
    <v>       0.12513647       0.99951600       0.18937960 </v>
    <v>       0.37389941       0.00043312       0.18779492 </v>
    <v>       0.62519973       0.99983159       0.43688968 </v>
    <v>       0.87735491       0.00016310       0.43688865 </v>
    <v>       0.62415252       0.00013929       0.18748933 </v>
    <v>       0.87535656      -0.00009635       0.18964514 </v>
    <v>       0.12740336       0.99983145       0.93689517 </v>
    <v>       0.37524765       0.00016723       0.93689311 </v>
    <v>       0.12513661       0.00014539       0.68440101 </v>
    <v>       0.37389970      -0.00009867       0.68599236 </v>
    <v>       0.62332471       0.99982603       0.93689500 </v>
    <v>       0.62415103       0.99952227       0.68629053 </v>
    <v>       0.87535579       0.00042697       0.68413864 </v>
    <v>       0.87554383       0.00015037       0.93699806 </v>
    <v>       0.00121858       0.29993518       0.06415362 </v>
    <v>       0.25037526       0.70470368       0.06356502 </v>
    <v>       0.24934529       0.29049877       0.31389537 </v>
    <v>       0.49915035       0.70485963       0.31333515 </v>
    <v>       0.49928899       0.29529515       0.06340334 </v>
    <v>       0.74957534       0.70011784       0.06397097 </v>
    <v>       0.75004574       0.29529120       0.31356026 </v>
    <v>       0.00101863       0.70932536       0.31410424 </v>
    <v>       0.00121819       0.29073087       0.56148254 </v>
    <v>       0.24956087       0.70946392       0.56169890 </v>
    <v>       0.25016902       0.29529985       0.81205139 </v>
    <v>       0.49907427       0.70470146       0.81220975 </v>
    <v>       0.49936468       0.29513947       0.56226626 </v>
    <v>       0.75025662       0.70470392       0.56203620 </v>
    <v>       0.74933376       0.29993745       0.81165055 </v>
    <v>       0.00100521       0.70002533       0.81147258 </v>
    <v>       0.24971056       0.32759742       0.06219339 </v>
    <v>      -0.00073636       0.67283862       0.06172460 </v>
    <v>       0.50064673       0.32774638       0.31254825 </v>
    <v>       0.25039091       0.67225405       0.31209711 </v>
    <v>       0.75052683       0.32697764       0.06209505 </v>
    <v>       0.50067087       0.67259207       0.06257886 </v>
    <v>       0.99922930       0.32758617       0.31176551 </v>
    <v>       0.74956412       0.67239710       0.31222332 </v>
    <v>       0.25047718       0.32774119       0.56362369 </v>
    <v>      -0.00067085       0.67241867       0.56396303 </v>
    <v>       0.50057935       0.32740570       0.81313562 </v>
    <v>       0.24961574       0.67240498       0.81351528 </v>
    <v>       0.74966687       0.32759689       0.56350632 </v>
    <v>       0.50073901       0.67225370       0.56317574 </v>
    <v>       0.99915989       0.32714481       0.81398333 </v>
    <v>       0.75043435       0.67302947       0.81361758 </v>
    <v>       0.50052750       0.07761774       0.06211425 </v>
    <v>      -0.00265868       0.91847542       0.30937191 </v>
    <v>       0.24958890       0.92216577       0.06183624 </v>
    <v>       0.25256934       0.08186831       0.30967297 </v>
    <v>       0.99737671       0.07403773       0.05967682 </v>
    <v>       0.50071360       0.92188001       0.31212469 </v>
    <v>       0.75208983       0.92615579       0.05991289 </v>
    <v>       0.74983809       0.07784258       0.31182320 </v>
    <v>       0.50049479       0.07812113       0.56278905 </v>
    <v>      -0.00238172       0.92596946       0.81518076 </v>
    <v>       0.25234521       0.91815309       0.56525926 </v>
    <v>       0.24980512       0.07783244       0.81306730 </v>
    <v>       0.99712969       0.08150256       0.56556498 </v>
    <v>       0.50074930       0.92238868       0.81279307 </v>
    <v>       0.74962563       0.92216644       0.56309428 </v>
    <v>       0.75227224       0.07385448       0.81492540 </v>
   </varray>
  </structure>
  <varray name="forces" >
   <v>      -0.35462933      -0.00239458       0.00498085 </v>
   <v>       0.03653894      -0.04141039       0.38298687 </v>
   <v>      -0.09324133       0.03095736       0.13130666 </v>
   <v>      -0.03261517       0.00105927       0.00583019 </v>
   <v>       0.33783080      -0.00023755       0.00500602 </v>
   <v>      -0.01543767       0.04327748       0.04519307 </v>
   <v>       0.10534880      -0.03274702       0.37629031 </v>
   <v>       0.27116053      -0.00042321       0.00649858 </v>
   <v>      -0.02340098      -0.00119098       0.00602463 </v>
   <v>       0.03591049       0.04385881      -0.37233933 </v>
   <v>      -0.09235823      -0.03168472      -0.11861101 </v>
   <v>      -0.28086273       0.00182420       0.00685504 </v>
   <v>      -0.01686784      -0.04230327      -0.03421707 </v>
   <v>       0.10193345       0.02814154      -0.35862032 </v>
   <v>      -0.03189023      -0.00520815       0.03037023 </v>
   <v>       0.09369800       0.06416178       0.10109203 </v>
   <v>       0.00459546      -0.24758340       0.06916882 </v>
   <v>      -0.07673385       0.85119691       0.15935489 </v>
   <v>      -0.06722387      -0.30616233       0.06360396 </v>
   <v>      -0.07833158       0.19463093       0.07875524 </v>
   <v>      -0.03461000      -0.02389288       0.10866383 </v>
   <v>      -0.01008273       0.24901528       0.05534205 </v>
   <v>       0.16893887      -0.74689558       0.15198218 </v>
   <v>       0.15872566       0.74374952      -0.15549924 </v>
   <v>      -0.08314611      -0.85182769      -0.16304277 </v>
   <v>       0.01347380       0.24795012      -0.07700911 </v>
   <v>      -0.07004274      -0.19389985      -0.08657863 </v>
   <v>      -0.07731759       0.30673816      -0.07197763 </v>
   <v>      -0.02012174      -0.24774850      -0.06357374 </v>
   <v>      -0.02667583       0.02585450      -0.11761767 </v>
   <v>       0.10581977      -0.06531735      -0.11038628 </v>
   <v>      -0.04320950       0.18709020      -0.07839743 </v>
   <v>      -0.10547501      -0.19926588      -0.14072253 </v>
   <v>       0.09018667       0.20780442      -0.04279632 </v>
   <v>       0.06850989      -0.14276461      -0.11582521 </v>
   <v>       0.06249437       0.16923660      -0.09799939 </v>
   <v>       0.07812623      -0.15472635      -0.03317315 </v>
   <v>      -0.10138082       0.11971691      -0.15709795 </v>
   <v>      -0.04753106      -0.18684907      -0.08329757 </v>
   <v>       0.06756676       0.14179123       0.11486745 </v>
   <v>      -0.10050081      -0.11952431       0.15715018 </v>
   <v>       0.07832255       0.15499458       0.03253047 </v>
   <v>      -0.04240593      -0.18667499       0.07705200 </v>
   <v>      -0.04770609       0.18646770       0.08337969 </v>
   <v>       0.08923725      -0.20747366       0.04283465 </v>
   <v>      -0.10548147       0.19696446       0.13976223 </v>
   <v>       0.06391351      -0.16885969       0.09753704 </v>
   <v>       0.03379774      -0.20587767      -0.01962888 </v>
   <v>      -0.54015542       0.91141594      -0.55889904 </v>
   <v>      -0.00699669       0.23179738      -0.02698276 </v>
   <v>       0.51686679      -1.00198779      -0.55128633 </v>
   <v>      -0.23638957       0.22494350      -0.25305771 </v>
   <v>       0.02718215       0.27769684      -0.01889605 </v>
   <v>       0.25416163      -0.22133840      -0.27028603 </v>
   <v>      -0.01906588      -0.23322871      -0.02552685 </v>
   <v>       0.03573610      -0.27775340       0.01497562 </v>
   <v>      -0.24139823      -0.23070579       0.24482579 </v>
   <v>       0.52110347       0.99795204       0.54472218 </v>
   <v>      -0.01460794      -0.23010394       0.02355521 </v>
   <v>      -0.52912475      -0.89838260       0.54967254 </v>
   <v>       0.02461715       0.20352340       0.01559153 </v>
   <v>      -0.01053256       0.23027442       0.02108637 </v>
   <v>       0.23175444       0.23235886       0.25449764 </v>
  </varray>
  <varray name="stress" >
   <v>       2.05418275      -0.04563603       0.01100433 </v>
   <v>      -0.04563587       3.04156829       0.01597144 </v>
   <v>       0.01100457       0.01597199       2.21920608 </v>
  </varray>
  <energy>
   <i name="e_fr_energy">   -323.15239513 </i>
   <i name="e_wo_entrp">   -323.15239513 </i>
   <i name="e_0_energy">      0.00000000 </i>
  </energy>
  <time name="totalsc">  556.12  563.39</time>
 </calculation>
 <calculation>
  <scstep>
   <time name="dav">   45.21   45.57</time>
   <time name="total">   45.84   46.21</time>
   <energy>
    <i name="alphaZ">   1106.81106694 </i>
    <i name="ewald"> -31654.98272768 </i>
    <i name="hartreedc"> -12772.73815496 </i>
    <i name="XCdc">   1568.43794977 </i>
    <i name="pawpsdc">  44366.61138796 </i>
    <i name="pawaedc"> -44013.57537477 </i>
    <i name="eentropy">      0.00000000 </i>
    <i name="bandstr">  -4462.27494502 </i>
    <i name="atom">  45556.09114881 </i>
    <i name="e_fr_energy">   -305.61964896 </i>
    <i name="e_wo_entrp">   -305.61964896 </i>
    <i name="e_0_energy">   -305.61964896 </i>
   </energy>
  </scstep>
  <scstep>
   <time name="dav">   51.71   52.10</time>
   <time name="total">   52.21   52.71</time>
   <energy>
    <i name="e_fr_energy">   -306.15084342 </i>
    <i name="e_wo_entrp">   -306.15084342 </i>
    <i name="e_0_energy">   -306.15084342 </i>
   </energy>
  </scstep>
  <scstep>
   <time name="dav">   72.10   72.34</time>
   <time name="total">   72.61   72.98</time>
   <energy>
    <i name="e_fr_energy">   -306.13690178 </i>
    <i name="e_wo_entrp">   -306.13690178 </i>
    <i name="e_0_energy">   -306.13690178 </i>
   </energy>
  </scstep>
  <scstep>
   <time name="dav">   54.55   55.26</time>
   <time name="total">   55.06   55.83</time>
   <energy>
    <i name="e_fr_energy">   -306.12082078 </i>
    <i name="e_wo_entrp">   -306.12082078 </i>
    <i name="e_0_energy">   -306.12082078 </i>
   </energy>
  </scstep>
  <scstep>
   <time name="dav">   55.80   56.40</time>
   <time name="total">   56.31   56.95</time>
   <energy>
    <i name="e_fr_energy">   -306.11664794 </i>
    <i name="e_wo_entrp">   -306.11664794 </i>
    <i name="e_0_energy">   -306.11664794 </i>
   </energy>
  </scstep>
  <scstep>
   <time name="dav">   58.77   59.07</time>
   <time name="total">   59.27   59.59</time>
   <energy>
    <i name="e_fr_energy">   -306.11703820 </i>
    <i name="e_wo_entrp">   -306.11703820 </i>
    <i name="e_0_energy">   -306.11703820 </i>
   </energy>
  </scstep>
  <scstep>
   <time name="dav">   71.37   71.78</time>
   <time name="total">   71.87   72.33</time>
   <energy>
    <i name="e_fr_energy">   -306.11698323 </i>
    <i name="e_wo_entrp">   -306.11698323 </i>
    <i name="e_0_energy">   -306.11698323 </i>
   </energy>
  </scstep>
  <scstep>
   <time name="dav">   52.68   53.11</time>
   <time name="total">   53.20   53.81</time>
   <energy>
    <i name="e_fr_energy">   -306.11693129 </i>
    <i name="e_wo_entrp">   -306.11693129 </i>
    <i name="e_0_energy">   -306.11693129 </i>
   </energy>
  </scstep>
  <scstep>
   <time name="dav">   62.61   63.52</time>
   <time name="total">   63.12   64.16</time>
   <energy>
    <i name="e_fr_energy">   -306.11693856 </i>
    <i name="e_wo_entrp">   -306.11693856 </i>
    <i name="e_0_energy">   -306.11693856 </i>
   </energy>
  </scstep>
  <scstep>
   <time name="dav">   52.76   53.66</time>
   <time name="total">   53.26   54.21</time>
   <energy>
    <i name="e_fr_energy">   -306.11694006 </i>
    <i name="e_wo_entrp">   -306.11694006 </i>
    <i name="e_0_energy">   -306.11694006 </i>
   </energy>
  </scstep>
  <scstep>
   <time name="dav">   47.85   48.72</time>
   <time name="total">   48.36   49.32</time>
   <energy>
    <i name="e_fr_energy">   -306.11694122 </i>
    <i name="e_wo_entrp">   -306.11694122 </i>
    <i name="e_0_energy">   -306.11694122 </i>
   </energy>
  </scstep>
  <scstep>
   <time name="dav">   43.46   44.28</time>
   <time name="total">   43.53   44.42</time>
   <energy>
    <i name="alphaZ">   1106.81106694 </i>
    <i name="ewald"> -31654.98272768 </i>
    <i name="hartreedc"> -12742.22697473 </i>
    <i name="XCdc">   1566.93240002 </i>
    <i name="pawpsdc">  44256.75949977 </i>
    <i name="pawaedc"> -43901.62326541 </i>
    <i name="eentropy">      0.00000000 </i>
    <i name="bandstr">  -4493.87808879 </i>
    <i name="atom">  45556.09114881 </i>
    <i name="e_fr_energy">   -306.11694106 </i>
    <i name="e_wo_entrp">   -306.11694106 </i>
    <i name="e_0_energy">   -306.11694106 </i>
   </energy>
  </scstep>
  <structure>
   <crystal>
    <varray name="basis" >
     <v>      11.12574807      -0.00075731       0.00016334 </v>
     <v>      -0.00064772       9.49093199       0.00043557 </v>
     <v>       0.00016336       0.00050912      11.12316325 </v>
    </varray>
    <i name="volume">   1174.53615857 </i>
    <varray name="rec_basis" >
     <v>       0.08988160       0.00000613      -0.00000132 </v>
     <v>       0.00000717       0.10536373      -0.00000482 </v>
     <v>      -0.00000132      -0.00000413       0.08990248 </v>
    </varray>
   </crystal>
   <varray name="positions" >
    <v>       0.37101485       0.00015333       0.43691784 </v>
    <v>       0.12550891       0.99918024       0.19203957 </v>
    <v>       0.37321080       0.00069580       0.18873359 </v>
    <v>       0.62498298       0.99983749       0.43692250 </v>
    <v>       0.87959762       0.00015914       0.43691754 </v>
    <v>       0.62389790       0.00048224       0.18793700 </v>
    <v>       0.87611127      -0.00036936       0.19238670 </v>
    <v>       0.12938397       0.99983003       0.93693309 </v>
    <v>       0.37508972       0.00016017       0.93692818 </v>
    <v>       0.12550651       0.00049389       0.68180291 </v>
    <v>       0.37321494      -0.00036732       0.68512700 </v>
    <v>       0.62128155       0.99983334       0.93693437 </v>
    <v>       0.62388972       0.99918477       0.68590581 </v>
    <v>       0.87609577       0.00067330       0.68148998 </v>
    <v>       0.87547252       0.00011639       0.93717962 </v>
    <v>       0.00206559       0.30222405       0.06513355 </v>
    <v>       0.25049615       0.70343225       0.06416624 </v>
    <v>       0.24880349       0.29276961       0.31501500 </v>
    <v>       0.49856804       0.70336257       0.31381766 </v>
    <v>       0.49860953       0.29630355       0.06397815 </v>
    <v>       0.74919929       0.69805055       0.06490745 </v>
    <v>       0.75007582       0.29656757       0.31410093 </v>
    <v>       0.00220879       0.70749843       0.31527921 </v>
    <v>       0.00234022       0.29256565       0.56027063 </v>
    <v>       0.24897347       0.70717440       0.56054473 </v>
    <v>       0.25034980       0.29657458       0.81140722 </v>
    <v>       0.49844858       0.70369523       0.81159070 </v>
    <v>       0.49872085       0.29663895       0.56173234 </v>
    <v>       0.75022382       0.70343181       0.56144266 </v>
    <v>       0.74899906       0.30203741       0.81066853 </v>
    <v>       0.00192270       0.69771439       0.81044759 </v>
    <v>       0.24938729       0.32886847       0.06158557 </v>
    <v>      -0.00150812       0.67168832       0.06065897 </v>
    <v>       0.50131673       0.32918201       0.31223801 </v>
    <v>       0.25086325       0.67114108       0.31129106 </v>
    <v>       0.75098863       0.32790282       0.06136355 </v>
    <v>       0.50125838       0.67156017       0.06232209 </v>
    <v>       0.99850209       0.32851859       0.31064746 </v>
    <v>       0.74920328       0.67112497       0.31160720 </v>
    <v>       0.25093990       0.32884740       0.56442601 </v>
    <v>      -0.00139447       0.67148916       0.56508485 </v>
    <v>       0.50117124       0.32843804       0.81338738 </v>
    <v>       0.24929793       0.67113695       0.81411272 </v>
    <v>       0.74930648       0.32886461       0.56412677 </v>
    <v>       0.50140171       0.67081978       0.56348779 </v>
    <v>       0.99838659       0.32827676       0.81503991 </v>
    <v>       0.75090521       0.67210915       0.81434407 </v>
    <v>       0.50094256       0.07644678       0.06188805 </v>
    <v>      -0.00609837       0.92152106       0.30572787 </v>
    <v>       0.24944301       0.92337532       0.06146377 </v>
    <v>       0.25576596       0.07851670       0.30618588 </v>
    <v>       0.99534465       0.07351540       0.05745355 </v>
    <v>       0.50107015       0.92319841       0.31190586 </v>
    <v>       0.75408397       0.92677650       0.05771436 </v>
    <v>       0.74963659       0.07662940       0.31145155 </v>
    <v>       0.50090452       0.07680295       0.56298869 </v>
    <v>      -0.00444258       0.92646606       0.81734339 </v>
    <v>       0.25557472       0.92149383       0.56872360 </v>
    <v>       0.24960884       0.07663053       0.81341844 </v>
    <v>       0.99375651       0.07851213       0.56917701 </v>
    <v>       0.50110977       0.92355066       0.81299693 </v>
    <v>       0.74947996       0.92336871       0.56344610 </v>
    <v>       0.75413939       0.07329280       0.81702324 </v>
   </varray>
  </structure>
  <varray name="forces" >
   <v>      -0.25553255      -0.00387810       0.00603608 </v>
   <v>       0.00988917      -0.03107291       0.25208737 </v>
   <v>      -0.02273091       0.01551660       0.05576513 </v>
   <v>      -0.02810174       0.00191555       0.00594596 </v>
   <v>       0.23593050       0.00034752       0.00501957 </v>
   <v>       0.02095587       0.03336187       0.00789450 </v>
   <v>       0.01893669      -0.00577529       0.12923112 </v>
   <v>       0.10775199      -0.00081200       0.00533106 </v>
   <v>      -0.02267023      -0.00158406       0.00562250 </v>
   <v>       0.00780461       0.03474680      -0.24092567 </v>
   <v>      -0.01950006      -0.01574785      -0.04183677 </v>
   <v>      -0.11595143       0.00408484       0.00654584 </v>
   <v>       0.01917062      -0.03062545       0.00289066 </v>
   <v>       0.00928725      -0.00246615      -0.10498533 </v>
   <v>      -0.04763522      -0.00392385       0.00802707 </v>
   <v>      -0.07956412      -0.36311049      -0.16607532 </v>
   <v>      -0.04298208       0.13945959      -0.09225610 </v>
   <v>       0.06288265      -0.21411928      -0.06624191 </v>
   <v>       0.08574409       0.14560588      -0.01210430 </v>
   <v>       0.04114750      -0.13045621      -0.00477214 </v>
   <v>       0.06798950       0.36141134      -0.07396196 </v>
   <v>      -0.07387756      -0.13684718      -0.05939324 </v>
   <v>      -0.05486133       0.16871750      -0.10020549 </v>
   <v>      -0.06278417      -0.16027347       0.09628065 </v>
   <v>       0.05616651       0.21064723       0.05998017 </v>
   <v>      -0.03707147      -0.13916644       0.08431411 </v>
   <v>       0.04633798       0.13019578      -0.00379908 </v>
   <v>       0.07851406      -0.14589304       0.00376998 </v>
   <v>      -0.08020960       0.13702349       0.05262326 </v>
   <v>       0.07384060      -0.36219848       0.06311877 </v>
   <v>      -0.07143841       0.36379185       0.15628966 </v>
   <v>       0.01026659       0.21844058       0.02522865 </v>
   <v>       0.00776399      -0.26966514       0.02409692 </v>
   <v>      -0.02019700       0.24127325       0.00766367 </v>
   <v>      -0.01325113      -0.15438050       0.01070024 </v>
   <v>      -0.00063047       0.22974511       0.00771123 </v>
   <v>      -0.02104859      -0.17431471       0.00642330 </v>
   <v>       0.01790645       0.12810782       0.03535697 </v>
   <v>       0.01851577      -0.21661234       0.02718665 </v>
   <v>      -0.01285900       0.15370370      -0.01317158 </v>
   <v>       0.01811601      -0.12800871      -0.03812945 </v>
   <v>      -0.02221517       0.17512378      -0.00670404 </v>
   <v>       0.01172006      -0.21783635      -0.02566722 </v>
   <v>       0.01675505       0.21663513      -0.02970003 </v>
   <v>      -0.02096835      -0.24054272      -0.00906745 </v>
   <v>       0.00925140       0.26788589      -0.02325080 </v>
   <v>       0.00044937      -0.22945067      -0.00677775 </v>
   <v>      -0.01408945       0.13522653       0.01020441 </v>
   <v>      -0.28228472      -0.09401232      -0.27914026 </v>
   <v>       0.01514445      -0.18491908       0.00833710 </v>
   <v>       0.30955444       0.13860021      -0.30558380 </v>
   <v>       0.04997531       0.70501707       0.03053378 </v>
   <v>       0.00052177      -0.19571120       0.01561514 </v>
   <v>      -0.01492165      -0.65000619       0.01146227 </v>
   <v>      -0.02751405       0.18062753       0.03255473 </v>
   <v>       0.00705552       0.19562737      -0.02000986 </v>
   <v>       0.04144858      -0.70882135      -0.02502629 </v>
   <v>       0.31466718      -0.14106112       0.29762198 </v>
   <v>       0.01079509       0.18645091      -0.01101012 </v>
   <v>      -0.26758745       0.09841287       0.26619361 </v>
   <v>      -0.02226763      -0.13746610      -0.01432032 </v>
   <v>      -0.02212798      -0.18290130      -0.03805811 </v>
   <v>      -0.02538307       0.65595645      -0.01148971 </v>
  </varray>
  <varray name="stress" >
   <v>       4.65122790      -0.00259149       0.00031135 </v>
   <v>      -0.00259178     -18.57760517      -0.07469078 </v>
   <v>       0.00031133      -0.07469090       5.33293612 </v>
  </varray>
  <energy>
   <i name="e_fr_energy">   -323.47479894 </i>
   <i name="e_wo_entrp">   -323.47479894 </i>
   <i name="e_0_energy">      0.00000000 </i>
  </energy>
  <time name="totalsc">  759.62  769.18</time>
 </calculation>
 <calculation>
  <scstep>
   <time name="dav">   45.79   46.66</time>
   <time name="total">   46.29   47.19</time>
   <energy>
    <i name="alphaZ">   1107.06858124 </i>
    <i name="ewald"> -31666.64959370 </i>
    <i name="hartreedc"> -12734.78535519 </i>
    <i name="XCdc">   1567.02036822 </i>
    <i name="pawpsdc">  44256.76367561 </i>
    <i name="pawaedc"> -43901.62646777 </i>
    <i name="eentropy">      0.00000000 </i>
    <i name="bandstr">  -4489.99226328 </i>
    <i name="atom">  45556.09114881 </i>
    <i name="e_fr_energy">   -306.10990607 </i>
    <i name="e_wo_entrp">   -306.10990607 </i>
    <i name="e_0_energy">   -306.10990607 </i>
   </energy>
  </scstep>
  <scstep>
   <time name="dav">   53.55   54.56</time>
   <time name="total">   54.05   55.16</time>
   <energy>
    <i name="e_fr_energy">   -306.11405181 </i>
    <i name="e_wo_entrp">   -306.11405181 </i>
    <i name="e_0_energy">   -306.11405181 </i>
   </energy>
  </scstep>
  <scstep>
   <time name="dav">   69.49   69.99</time>
   <time name="total">   70.02   70.63</time>
   <energy>
    <i name="e_fr_energy">   -306.11390767 </i>
    <i name="e_wo_entrp">   -306.11390767 </i>
    <i name="e_0_energy">   -306.11390767 </i>
   </energy>
  </scstep>
  <scstep>
   <time name="dav">   58.80   59.07</time>
   <time name="total">   59.31   59.85</time>
   <energy>
    <i name="e_fr_energy">   -306.11375792 </i>
    <i name="e_wo_entrp">   -306.11375792 </i>
    <i name="e_0_energy">   -306.11375792 </i>
   </energy>
  </scstep>
  <scstep>
   <time name="dav">   60.02   61.15</time>
   <time name="total">   60.54   61.85</time>
   <energy>
    <i name="e_fr_energy">   -306.11373867 </i>
    <i name="e_wo_entrp">   -306.11373867 </i>
    <i name="e_0_energy">   -306.11373867 </i>
   </energy>
  </scstep>
  <scstep>
   <time name="dav">   56.15   56.79</time>
   <time name="total">   56.66   57.40</time>
   <energy>
[...]
       <r>   12.7820    0.0000 </r>
       <r>   12.8145    0.0000 </r>
      </set>
     </set>
    </set>
   </array>
  </eigenvalues>
  <separator name="orbital magnetization" >
   <v name="MAGDIPOLOUT">      0.00000000      0.00000000      0.00000000</v>
  </separator>
  <dos>
   <i name="efermi">      4.60422757 </i>
   <total>
    <array>
     <dimension dim="1">gridpoints</dimension>
     <dimension dim="2">spin</dimension>
     <field>energy</field>
     <field>total</field>
     <field>integrated</field>
     <set>
      <set comment="spin 1">
       <r>   -42.1886     0.0000     0.0000 </r>
       <r>   -41.9949     0.0000     0.0000 </r>
       <r>   -41.8011     0.0000     0.0000 </r>
       <r>   -41.6074     0.0000     0.0000 </r>
       <r>   -41.4136     0.0000     0.0000 </r>
       <r>   -41.2198     0.0000     0.0000 </r>
       <r>   -41.0261     0.0000     0.0000 </r>
       <r>   -40.8323     0.0000     0.0000 </r>
       <r>   -40.6386     0.0000     0.0000 </r>
       <r>   -40.4448     0.0000     0.0000 </r>
       <r>   -40.2510     0.0000     0.0000 </r>
       <r>   -40.0573     0.0000     0.0000 </r>
       <r>   -39.8635     0.0000     0.0000 </r>
       <r>   -39.6698     0.0000     0.0000 </r>
       <r>   -39.4760     0.0000    16.0000 </r>
       <r>   -39.2823     0.0000    22.0000 </r>
       <r>   -39.0885     0.0000    28.0000 </r>
       <r>   -38.8947     0.0000    28.0000 </r>
       <r>   -38.7010     0.0000    28.0000 </r>
       <r>   -38.5072     0.0000    28.0000 </r>
       <r>   -38.3135     0.0000    28.0000 </r>
       <r>   -38.1197     0.0000    28.0000 </r>
       <r>   -37.9259     0.0000    28.0000 </r>
       <r>   -37.7322     0.0000    28.0000 </r>
       <r>   -37.5384     0.0000    28.0000 </r>
       <r>   -37.3447     0.0000    28.0000 </r>
       <r>   -37.1509     0.0000    28.0000 </r>
       <r>   -36.9571     0.0000    28.0000 </r>
       <r>   -36.7634     0.0000    28.0000 </r>
       <r>   -36.5696     0.0000    28.0000 </r>
       <r>   -36.3759     0.0000    28.0000 </r>
       <r>   -36.1821     0.0000    28.0000 </r>
       <r>   -35.9883     0.0000    28.0000 </r>
       <r>   -35.7946     0.0000    28.0000 </r>
       <r>   -35.6008     0.0000    28.0000 </r>
       <r>   -35.4071     0.0000    28.0000 </r>
       <r>   -35.2133     0.0000    28.0000 </r>
       <r>   -35.0195     0.0000    28.0000 </r>
       <r>   -34.8258     0.0000    28.0000 </r>
       <r>   -34.6320     0.0000    28.0000 </r>
       <r>   -34.4383     0.0000    28.0000 </r>
       <r>   -34.2445     0.0000    28.0000 </r>
       <r>   -34.0508     0.0000    28.0000 </r>
       <r>   -33.8570     0.0000    28.0000 </r>
       <r>   -33.6632     0.0000    28.0000 </r>
       <r>   -33.4695     0.0000    28.0000 </r>
       <r>   -33.2757     0.0000    28.0000 </r>
       <r>   -33.0820     0.0000    28.0000 </r>
       <r>   -32.8882     0.0000    28.0000 </r>
       <r>   -32.6944     0.0000    28.0000 </r>
       <r>   -32.5007     0.0000    28.0000 </r>
       <r>   -32.3069     0.0000    28.0000 </r>
       <r>   -32.1132     0.0000    28.0000 </r>
       <r>   -31.9194     0.0000    28.0000 </r>
       <r>   -31.7256     0.0000    28.0000 </r>
       <r>   -31.5319     0.0000    28.0000 </r>
       <r>   -31.3381     0.0000    28.0000 </r>
       <r>   -31.1444     0.0000    28.0000 </r>
       <r>   -30.9506     0.0000    28.0000 </r>
       <r>   -30.7568     0.0000    28.0000 </r>
       <r>   -30.5631     0.0000    28.0000 </r>
       <r>   -30.3693     0.0000    28.0000 </r>
       <r>   -30.1756     0.0000    28.0000 </r>
       <r>   -29.9818     0.0000    28.0000 </r>
       <r>   -29.7880     0.0000    28.0000 </r>
       <r>   -29.5943     0.0000    28.0000 </r>
       <r>   -29.4005     0.0000    28.0000 </r>
       <r>   -29.2068     0.0000    28.0000 </r>
       <r>   -29.0130     0.0000    28.0000 </r>
       <r>   -28.8192     0.0000    28.0000 </r>
       <r>   -28.6255     0.0000    28.0000 </r>
       <r>   -28.4317     0.0000    28.0000 </r>
       <r>   -28.2380     0.0000    28.0000 </r>
       <r>   -28.0442     0.0000    28.0000 </r>
       <r>   -27.8505     0.0000    28.0000 </r>
       <r>   -27.6567     0.0000    28.0000 </r>
       <r>   -27.4629     0.0000    28.0000 </r>
       <r>   -27.2692     0.0000    28.0000 </r>
       <r>   -27.0754     0.0000    28.0000 </r>
       <r>   -26.8817     0.0000    28.0000 </r>
       <r>   -26.6879     0.0000    28.0000 </r>
       <r>   -26.4941     0.0000    28.0000 </r>
       <r>   -26.3004     0.0000    28.0000 </r>
       <r>   -26.1066     0.0000    28.0000 </r>
       <r>   -25.9129     0.0000    28.0000 </r>
       <r>   -25.7191     0.0000    28.0000 </r>
       <r>   -25.5253     0.0000    28.0000 </r>
       <r>   -25.3316     0.0000    28.0000 </r>
       <r>   -25.1378     0.0000    28.0000 </r>
       <r>   -24.9441     0.0000    28.0000 </r>
       <r>   -24.7503     0.0000    28.0000 </r>
       <r>   -24.5565     0.0000    28.0000 </r>
       <r>   -24.3628     0.0000    28.0000 </r>
       <r>   -24.1690     0.0000    28.0000 </r>
       <r>   -23.9753     0.0000    28.0000 </r>
       <r>   -23.7815     0.0000    28.0000 </r>
       <r>   -23.5877     0.0000    28.0000 </r>
       <r>   -23.3940     0.0000    28.0000 </r>
       <r>   -23.2002     0.0000    28.0000 </r>
       <r>   -23.0065     0.0000    28.0000 </r>
       <r>   -22.8127     0.0000    28.0000 </r>
       <r>   -22.6190     0.0000    28.0000 </r>
       <r>   -22.4252     0.0000    28.0000 </r>
       <r>   -22.2314     0.0000    28.0000 </r>
       <r>   -22.0377     0.0000    28.0000 </r>
       <r>   -21.8439     0.0000    28.0000 </r>
       <r>   -21.6502     0.0000    28.0000 </r>
       <r>   -21.4564     0.0000    28.0000 </r>
       <r>   -21.2626     0.0000    28.0000 </r>
       <r>   -21.0689     0.0000    28.0000 </r>
       <r>   -20.8751     0.0000    28.0000 </r>
       <r>   -20.6814     0.0000    28.0000 </r>
       <r>   -20.4876     0.0000    28.0000 </r>
       <r>   -20.2938     0.0000    28.0000 </r>
       <r>   -20.1001     0.0000    28.0000 </r>
       <r>   -19.9063     0.0000    28.0000 </r>
       <r>   -19.7126     0.0000    28.0000 </r>
       <r>   -19.5188     0.0000    28.0000 </r>
       <r>   -19.3250     0.0000    28.0000 </r>
       <r>   -19.1313     0.0000    28.0000 </r>
       <r>   -18.9375     0.0000    28.0000 </r>
       <r>   -18.7438     0.0000    28.0000 </r>
       <r>   -18.5500     0.0000    28.0000 </r>
       <r>   -18.3562     0.0000    48.0000 </r>
       <r>   -18.1625     0.0000   148.0000 </r>
       <r>   -17.9687     0.0000   188.0000 </r>
       <r>   -17.7750     0.0000   188.0000 </r>
       <r>   -17.5812     0.0000   188.0000 </r>
       <r>   -17.3875     0.0000   188.0000 </r>
       <r>   -17.1937     0.0000   188.0000 </r>
       <r>   -16.9999     0.0000   188.0000 </r>
       <r>   -16.8062     0.0000   188.0000 </r>
       <r>   -16.6124     0.0000   188.0000 </r>
       <r>   -16.4187     0.0000   188.0000 </r>
       <r>   -16.2249     0.0000   188.0000 </r>
       <r>   -16.0311     0.0000   188.0000 </r>
       <r>   -15.8374     0.0000   188.0000 </r>
       <r>   -15.6436     0.0000   188.0000 </r>
       <r>   -15.4499     0.0000   188.0000 </r>
       <r>   -15.2561     0.0000   188.0000 </r>
       <r>   -15.0623     0.0000   188.0000 </r>
       <r>   -14.8686     0.0000   188.0000 </r>
       <r>   -14.6748     0.0000   188.0000 </r>
       <r>   -14.4811     0.0000   188.0000 </r>
       <r>   -14.2873     0.0000   188.0000 </r>
       <r>   -14.0935     0.0000   188.0000 </r>
       <r>   -13.8998     0.0000   188.0000 </r>
       <r>   -13.7060     0.0000   188.0000 </r>
       <r>   -13.5123     0.0000   188.0000 </r>
       <r>   -13.3185     0.0000   188.0000 </r>
       <r>   -13.1247     0.0000   188.0000 </r>
       <r>   -12.9310     0.0000   188.0000 </r>
       <r>   -12.7372     0.0000   190.0000 </r>
       <r>   -12.5435     0.0000   194.0000 </r>
       <r>   -12.3497    38.4737   201.9545 </r>
       <r>   -12.1560     0.0000   220.0000 </r>
       <r>   -11.9622     0.0000   220.0000 </r>
       <r>   -11.7684     0.0000   220.0000 </r>
       <r>   -11.5747     0.0000   220.0000 </r>
       <r>   -11.3809     0.0000   220.0000 </r>
       <r>   -11.1872     0.0000   220.0000 </r>
       <r>   -10.9934     0.0000   220.0000 </r>
       <r>   -10.7996     0.0000   220.0000 </r>
       <r>   -10.6059     0.0000   220.0000 </r>
       <r>   -10.4121     0.0000   220.0000 </r>
       <r>   -10.2184     0.0000   220.0000 </r>
       <r>   -10.0246     0.0000   220.0000 </r>
       <r>    -9.8308     0.0000   220.0000 </r>
       <r>    -9.6371     0.0000   220.0000 </r>
       <r>    -9.4433     0.0000   220.0000 </r>
       <r>    -9.2496     0.0000   220.0000 </r>
       <r>    -9.0558    11.2130   220.8438 </r>
       <r>    -8.8620     9.7903   222.7487 </r>
       <r>    -8.6683     4.0723   224.1838 </r>
       <r>    -8.4745    20.7900   226.6553 </r>
       <r>    -8.2808    38.6119   229.6772 </r>
       <r>    -8.0870    15.3858   234.7809 </r>
       <r>    -7.8932     5.7189   236.0650 </r>
       <r>    -7.6995    31.6595   242.4801 </r>
       <r>    -7.5057    44.0256   247.7814 </r>
       <r>    -7.3120    22.7459   249.9832 </r>
       <r>    -7.1182     0.0000   252.0000 </r>
       <r>    -6.9244     0.0000   252.0000 </r>
       <r>    -6.7307     0.0000   252.0000 </r>
       <r>    -6.5369     0.0000   252.0000 </r>
       <r>    -6.3432     0.0000   252.0000 </r>
       <r>    -6.1494     0.0000   252.0000 </r>
       <r>    -5.9557    10.6538   252.4686 </r>
       <r>    -5.7619    31.0597   257.3964 </r>
       <r>    -5.5681     9.4466   260.2935 </r>
       <r>    -5.3744    32.6603   264.6967 </r>
       <r>    -5.1806    21.3328   270.0061 </r>
       <r>    -4.9869    13.4750   273.9891 </r>
       <r>    -4.7931     5.0810   275.9016 </r>
       <r>    -4.5993     6.7707   276.5029 </r>
       <r>    -4.4056    13.9706   278.5755 </r>
       <r>    -4.2118     3.1029   280.3398 </r>
       <r>    -4.0181     5.8690   281.2091 </r>
       <r>    -3.8243     8.9898   282.7245 </r>
       <r>    -3.6305     2.2333   283.6136 </r>
       <r>    -3.4368     0.9779   283.9247 </r>
       <r>    -3.2430     0.0000   284.0000 </r>
       <r>    -3.0493     0.0000   284.0000 </r>
       <r>    -2.8555     0.0000   284.0000 </r>
       <r>    -2.6617     0.0000   284.0000 </r>
       <r>    -2.4680     0.0000   284.0000 </r>
       <r>    -2.2742     0.0000   284.0000 </r>
       <r>    -2.0805     0.0000   284.0000 </r>
       <r>    -1.8867     0.0000   284.0000 </r>
       <r>    -1.6929     0.0000   284.0000 </r>
       <r>    -1.4992     0.0000   284.0000 </r>
       <r>    -1.3054     0.0000   284.0000 </r>
       <r>    -1.1117     0.9438   284.0142 </r>
       <r>    -0.9179     7.9829   285.0763 </r>
       <r>    -0.7242     4.8593   286.2730 </r>
       <r>    -0.5304    12.5449   287.8179 </r>
       <r>    -0.3366     9.2052   290.1355 </r>
       <r>    -0.1429    14.0995   291.8978 </r>
       <r>     0.0509    26.5161   296.0282 </r>
       <r>     0.2446    35.3383   301.3532 </r>
       <r>     0.4384    35.2931   309.5551 </r>
       <r>     0.6322    45.0436   317.1260 </r>
       <r>     0.8259    23.4626   324.4135 </r>
       <r>     1.0197    31.3828   330.4651 </r>
       <r>     1.2134    34.6481   335.7588 </r>
       <r>     1.4072    51.5705   344.3626 </r>
       <r>     1.6010    52.3973   352.7938 </r>
       <r>     1.7947    42.7069   361.1927 </r>
       <r>     1.9885    60.1389   371.2460 </r>
       <r>     2.1822    78.7370   384.1199 </r>
       <r>     2.3760    35.0462   393.6488 </r>
       <r>     2.5698    30.6065   400.1539 </r>
       <r>     2.7635    84.8221   410.3283 </r>
       <r>     2.9573    67.9585   425.4992 </r>
       <r>     3.1510    71.5521   437.1023 </r>
       <r>     3.3448    67.5119   451.3832 </r>
       <r>     3.5386    21.3305   459.6861 </r>
       <r>     3.7323    30.3810   464.1634 </r>
       <r>     3.9261    17.6485   471.0006 </r>
       <r>     4.1198    10.8568   473.6613 </r>
       <r>     4.3136     5.9563   475.2899 </r>
       <r>     4.5073     1.0720   475.9701 </r>
       <r>     4.7011     0.0000   476.0000 </r>
       <r>     4.8949     0.0000   476.0000 </r>
       <r>     5.0886     0.0000   476.0000 </r>
       <r>     5.2824     0.0000   476.0000 </r>
       <r>     5.4761     0.0000   476.0000 </r>
       <r>     5.6699     4.1275   476.3002 </r>
       <r>     5.8637     9.7498   477.6450 </r>
       <r>     6.0574     8.5923   479.6080 </r>
       <r>     6.2512    15.2847   483.7530 </r>
       <r>     6.4449    12.9013   486.4560 </r>
       <r>     6.6387    12.1805   488.8828 </r>
       <r>     6.8325    13.7418   491.3666 </r>
       <r>     7.0262    15.6615   494.2137 </r>
       <r>     7.2200    18.0869   497.4773 </r>
       <r>     7.4137    23.2430   501.3904 </r>
       <r>     7.6075    31.0741   506.6677 </r>
       <r>     7.8013    41.3680   514.5368 </r>
       <r>     7.9950    26.7968   519.8490 </r>
       <r>     8.1888    29.5704   525.7657 </r>
       <r>     8.3825    38.9279   531.8831 </r>
       <r>     8.5763    35.9353   540.1325 </r>
       <r>     8.7701    15.4787   544.5544 </r>
       <r>     8.9638    30.3216   548.1193 </r>
       <r>     9.1576    34.6920   555.3377 </r>
       <r>     9.3513    23.8991   562.7050 </r>
       <r>     9.5451    27.2522   568.7109 </r>
       <r>     9.7388     5.3770   571.8267 </r>
       <r>     9.9326     0.0000   572.0000 </r>
       <r>    10.1264     9.1578   572.5240 </r>
       <r>    10.3201    11.2042   574.7583 </r>
       <r>    10.5139    15.8905   576.8801 </r>
       <r>    10.7076    19.0922   580.8825 </r>
       <r>    10.9014    28.9593   585.2533 </r>
       <r>    11.0952    44.2553   593.4647 </r>
       <r>    11.2889    24.8286   600.3911 </r>
       <r>    11.4827    22.9902   604.3431 </r>
       <r>    11.6764    26.7192   608.7211 </r>
       <r>    11.8702    20.3711   612.9258 </r>
       <r>    12.0640    17.7775   616.5848 </r>
       <r>    12.2577    21.6310   620.3182 </r>
       <r>    12.4515    28.9360   625.1767 </r>
       <r>    12.6452    31.8251   631.3530 </r>
       <r>    12.8390    21.8256   636.6717 </r>
       <r>    13.0328     7.5810   639.3112 </r>
       <r>    13.2265     0.5201   639.9891 </r>
       <r>    13.4203     0.0000   640.0000 </r>
       <r>    13.6140     0.0000   640.0000 </r>
       <r>    13.8078     0.0000   640.0000 </r>
       <r>    14.0016     0.0000   640.0000 </r>
       <r>    14.1953     0.0000   640.0000 </r>
       <r>    14.3891     0.0000   640.0000 </r>
       <r>    14.5828     0.0000   640.0000 </r>
       <r>    14.7766     0.0000   640.0000 </r>
       <r>    14.9703     0.0000   640.0000 </r>
       <r>    15.1641     0.0000   640.0000 </r>
       <r>    15.3579     0.0000   640.0000 </r>
       <r>    15.5516     0.0000   640.0000 </r>
       <r>    15.7454     0.0000   640.0000 </r>
       <r>    15.9391     0.0000   640.0000 </r>
      </set>
     </set>
    </array>
   </total>
  </dos>
 </calculation>
 <structure name="finalpos" >
  <crystal>
   <varray name="basis" >
    <v>      11.13647800       0.00018643      -0.00015255 </v>
    <v>       0.00013988       9.40893845       0.00039333 </v>
    <v>      -0.00015324       0.00042298      11.12825019 </v>
   </varray>
   <i name="volume">   1166.04516212 </i>
   <varray name="rec_basis" >
    <v>       0.08979500      -0.00000134       0.00000124 </v>
    <v>      -0.00000178       0.10628192      -0.00000404 </v>
    <v>       0.00000123      -0.00000376       0.08986139 </v>
   </varray>
  </crystal>
  <varray name="positions" >
   <v>       0.36566412       0.00006724       0.43764675 </v>
   <v>       0.13761908       0.98800057       0.21733569 </v>
   <v>       0.38018101       0.00016439       0.18747195 </v>
   <v>       0.62532229       0.00000749       0.43765995 </v>
   <v>       0.89055752      -0.00010201       0.43770508 </v>
   <v>       0.62519009       0.00042152       0.19066129 </v>
   <v>       0.87544848       0.00304385       0.19258100 </v>
   <v>       0.12823250       0.00005434       0.93761307 </v>
   <v>       0.37003238      -0.00001251       0.93761424 </v>
   <v>       0.13767923       0.01203783       0.65773672 </v>
   <v>       0.38016711      -0.00019604       0.68776333 </v>
   <v>       0.61593650      -0.00007142       0.93766313 </v>
   <v>       0.62522232       0.99958053       0.68468211 </v>
   <v>       0.87547145      -0.00293342       0.68270850 </v>
   <v>       0.87142542       0.00001606       0.93759567 </v>
   <v>      -0.00115819       0.30930696       0.06233317 </v>
   <v>       0.24935796       0.69965002       0.06251343 </v>
   <v>       0.25179765       0.29694971       0.31239797 </v>
   <v>       0.49949733       0.69944366       0.31308840 </v>
   <v>       0.49767766       0.29990360       0.06338907 </v>
   <v>       0.74857356       0.69190376       0.06356381 </v>
   <v>       0.74949180       0.30027781       0.31298185 </v>
   <v>      -0.00125573       0.70086507       0.31284501 </v>
   <v>      -0.00125359       0.29913263       0.56207581 </v>
   <v>       0.25180880       0.70306243       0.56249204 </v>
   <v>       0.24935085       0.30033259       0.81237941 </v>
   <v>       0.49766245       0.70005615       0.81156432 </v>
   <v>       0.49950372       0.30053553       0.56187427 </v>
   <v>       0.74949653       0.69975872       0.56197740 </v>
   <v>       0.74856889       0.30809294       0.81138995 </v>
   <v>      -0.00118457       0.69077673       0.81257106 </v>
   <v>       0.24893148       0.34483733       0.06226908 </v>
   <v>      -0.00253325       0.65166156       0.06196546 </v>
   <v>       0.49973106       0.34891561       0.31189180 </v>
   <v>       0.24890656       0.66549527       0.31119964 </v>
   <v>       0.74854231       0.34740317       0.06128813 </v>
   <v>       0.49900896       0.65693837       0.06172167 </v>
   <v>       0.99843375       0.33255086       0.31149605 </v>
   <v>       0.74891636       0.65338273       0.31218187 </v>
   <v>       0.24891409       0.33442646       0.56359747 </v>
   <v>      -0.00158607       0.66747790       0.56330493 </v>
   <v>       0.49900896       0.34304424       0.81307002 </v>
   <v>       0.24890070       0.65513562       0.81252491 </v>
   <v>       0.74892496       0.34665332       0.56261724 </v>
   <v>       0.49971741       0.65105504       0.56288855 </v>
   <v>       0.99746502       0.34842541       0.81284034 </v>
   <v>       0.74851527       0.65259177       0.81350582 </v>
   <v>       0.50083924       0.07761397       0.06248963 </v>
   <v>      -0.01053382       0.91814532       0.29966430 </v>
   <v>       0.24870840       0.92118947       0.06172481 </v>
   <v>       0.26873429       0.08077289       0.30182854 </v>
   <v>       0.98809628       0.08557907       0.05170945 </v>
   <v>       0.50474677       0.92037407       0.31198366 </v>
   <v>       0.75259266       0.91870026       0.05640252 </v>
   <v>       0.74816842       0.07886154       0.31031387 </v>
   <v>       0.50475347       0.07960589       0.56320946 </v>
   <v>      -0.01197387       0.91448480       0.82334832 </v>
   <v>       0.26876126       0.91922203       0.57326952 </v>
   <v>       0.24870594       0.07879452       0.81334651 </v>
   <v>       0.98947213       0.08187529       0.57550053 </v>
   <v>       0.50086030       0.92234591       0.81269472 </v>
   <v>       0.74821717       0.92117748       0.56482891 </v>
   <v>       0.75257914       0.08130611       0.81873682 </v>
  </varray>
 </structure>
</modeling>
