<?xml version="1.0" encoding="ISO-8859-1"?>
<modeling>
 <generator>
  <i name="program" type="string">vasp </i>
  <i name="version" type="string">5.4.4.18Apr17-6-g9f103f2a35  </i>
  <i name="subversion" type="string">(build Jul 31 2017 11:33:29) complex            parallel </i>
  <i name="platform" type="string">LinuxIFC </i>
  <i name="date" type="string">2021 09 21 </i>
  <i name="time" type="string">15:15:33 </i>
 </generator>
 <incar>
  <i type="string" name="SYSTEM"> La2O2S</i>
  <i type="string" name="PREC">normal</i>
  <i type="int" name="NELMIN">     4</i>
  <i type="int" name="IBRION">     2</i>
  <i type="int" name="NFREE">    10</i>
  <i name="EDIFF">      0.00000100</i>
  <i name="EDIFFG">     -0.01000000</i>
  <i type="int" name="NSW">   200</i>
  <i type="int" name="ISIF">     3</i>
  <i name="ENCUT">    600.00000000</i>
  <i name="ENAUG">    900.00000000</i>
  <i type="int" name="ISMEAR">    -5</i>
  <i type="logical" name="LWAVE"> F  </i>
  <i type="logical" name="LCHARG"> F  </i>
  <v type="int" name="KPOINT_BSE">    -1     0     0     0</v>
 </incar>
 <structure name="primitive_cell" >
  <crystal>
   <varray name="basis" >
    <v>      11.17850000       0.00000000       0.00000000 </v>
    <v>       0.00000000       9.57460000       0.00000000 </v>
    <v>       0.00000000       0.00000000      11.18240000 </v>
   </varray>
   <i name="volume">   1196.84853820 </i>
   <varray name="rec_basis" >
    <v>       0.08945744       0.00000000       0.00000000 </v>
    <v>       0.00000000       0.10444301       0.00000000 </v>
    <v>       0.00000000       0.00000000       0.08942624 </v>
   </varray>
  </crystal>
  <varray name="positions" >
   <v>       0.12461000      -0.00016000       0.18687000 </v>
   <v>      -0.00013000       0.07798000       0.06246000 </v>
   <v>       0.24987000      -0.07798000       0.06246000 </v>
   <v>       0.00013000      -0.07798000       0.31246000 </v>
   <v>       0.25013000       0.07798000       0.31246000 </v>
   <v>      -0.12539000       0.00017000       0.18687000 </v>
   <v>       0.12539000      -0.00016000      -0.06313000 </v>
   <v>       0.00013000       0.29519000       0.06281000 </v>
   <v>       0.25013000      -0.29519000       0.06281000 </v>
   <v>      -0.00013000      -0.29519000       0.31282000 </v>
   <v>       0.24987000       0.29519000       0.31282000 </v>
   <v>       0.00005000      -0.32677000       0.06286000 </v>
   <v>       0.25005000       0.32677000       0.06286000 </v>
   <v>      -0.00005000       0.32677000       0.31286000 </v>
   <v>       0.24995000      -0.32677000       0.31286000 </v>
   <v>      -0.12461000       0.00017000       0.43687000 </v>
   <v>      -0.12461000       0.00017000      -0.06313000 </v>
   <v>       0.37539000       0.00017000      -0.06313000 </v>
   <v>       0.00013000      -0.07798000      -0.18754000 </v>
   <v>      -0.25013000      -0.07798000       0.06246000 </v>
   <v>      -0.24987000       0.07798000       0.31246000 </v>
   <v>       0.25013000       0.07798000      -0.18754000 </v>
   <v>       0.49987000       0.07798000       0.06246000 </v>
   <v>      -0.00013000       0.07798000      -0.43754000 </v>
   <v>      -0.49987000      -0.07798000       0.31246000 </v>
   <v>       0.24987000      -0.07798000      -0.43754000 </v>
   <v>      -0.00013000      -0.29519000      -0.18718000 </v>
   <v>      -0.24987000      -0.29519000       0.06281000 </v>
   <v>       0.24987000       0.29519000      -0.18718000 </v>
   <v>      -0.25013000       0.29519000       0.31282000 </v>
   <v>      -0.49987000       0.29519000       0.06281000 </v>
   <v>       0.49987000      -0.29519000       0.31282000 </v>
   <v>       0.00013000       0.29519000      -0.43719000 </v>
   <v>       0.25013000      -0.29519000      -0.43719000 </v>
   <v>      -0.00005000       0.32677000      -0.18714000 </v>
   <v>       0.24995000      -0.32677000      -0.18714000 </v>
   <v>      -0.24995000       0.32677000       0.06286000 </v>
   <v>      -0.25005000      -0.32677000       0.31286000 </v>
   <v>      -0.49995000      -0.32677000       0.06286000 </v>
   <v>       0.49995000       0.32677000       0.31286000 </v>
   <v>       0.00005000      -0.32677000      -0.43714000 </v>
   <v>       0.25005000       0.32677000      -0.43714000 </v>
   <v>      -0.37539000      -0.00016000       0.18687000 </v>
   <v>       0.12461000      -0.00016000      -0.31313000 </v>
   <v>      -0.24987000       0.07798000      -0.18754000 </v>
   <v>      -0.49987000      -0.07798000      -0.18754000 </v>
   <v>      -0.25013000      -0.07798000      -0.43754000 </v>
   <v>       0.49987000       0.07798000      -0.43754000 </v>
   <v>      -0.37461000      -0.00016000       0.43687000 </v>
   <v>      -0.25013000       0.29519000      -0.18718000 </v>
   <v>       0.49987000      -0.29519000      -0.18718000 </v>
   <v>      -0.24987000      -0.29519000      -0.43719000 </v>
   <v>      -0.49987000       0.29519000      -0.43719000 </v>
   <v>      -0.25005000      -0.32677000      -0.18714000 </v>
   <v>       0.49995000       0.32677000      -0.18714000 </v>
   <v>      -0.24995000       0.32677000      -0.43714000 </v>
   <v>      -0.49995000      -0.32677000      -0.43714000 </v>
   <v>      -0.37539000      -0.00016000      -0.31313000 </v>
  </varray>
 </structure>
 <varray name="primitive_index" >
  <v type="int" >        1 </v>
  <v type="int" >       47 </v>
  <v type="int" >       44 </v>
  <v type="int" >       46 </v>
  <v type="int" >       45 </v>
  <v type="int" >        6 </v>
  <v type="int" >        7 </v>
  <v type="int" >       11 </v>
  <v type="int" >       12 </v>
  <v type="int" >       18 </v>
  <v type="int" >       13 </v>
  <v type="int" >       28 </v>
  <v type="int" >       27 </v>
  <v type="int" >       33 </v>
  <v type="int" >       30 </v>
  <v type="int" >        5 </v>
  <v type="int" >        9 </v>
  <v type="int" >        8 </v>
  <v type="int" >       54 </v>
  <v type="int" >       48 </v>
  <v type="int" >       49 </v>
  <v type="int" >       53 </v>
  <v type="int" >       43 </v>
  <v type="int" >       55 </v>
  <v type="int" >       50 </v>
  <v type="int" >       52 </v>
  <v type="int" >       26 </v>
  <v type="int" >       16 </v>
  <v type="int" >       21 </v>
  <v type="int" >       17 </v>
  <v type="int" >       15 </v>
  <v type="int" >       14 </v>
  <v type="int" >       19 </v>
  <v type="int" >       20 </v>
  <v type="int" >       41 </v>
  <v type="int" >       38 </v>
  <v type="int" >       31 </v>
  <v type="int" >       34 </v>
  <v type="int" >       32 </v>
  <v type="int" >       29 </v>
  <v type="int" >       36 </v>
  <v type="int" >       35 </v>
  <v type="int" >        3 </v>
  <v type="int" >        4 </v>
  <v type="int" >       57 </v>
  <v type="int" >       58 </v>
  <v type="int" >       56 </v>
  <v type="int" >       51 </v>
  <v type="int" >        2 </v>
  <v type="int" >       25 </v>
  <v type="int" >       22 </v>
  <v type="int" >       24 </v>
  <v type="int" >       23 </v>
  <v type="int" >       42 </v>
  <v type="int" >       37 </v>
  <v type="int" >       39 </v>
  <v type="int" >       40 </v>
  <v type="int" >       10 </v>
 </varray>
 <kpoints>
  <generation param="Gamma">
   <v type="int" name="divisions">       2        2        2 </v>
   <v name="usershift">      0.00000000       0.00000000       0.00000000 </v>
   <v name="genvec1">      0.50000000       0.00000000       0.00000000 </v>
   <v name="genvec2">      0.00000000       0.50000000       0.00000000 </v>
   <v name="genvec3">      0.00000000       0.00000000       0.50000000 </v>
   <v name="shift">      0.00000000       0.00000000       0.00000000 </v>
  </generation>
  <varray name="kpointlist" >
   <v>       0.00000000       0.00000000       0.00000000 </v>
   <v>       0.50000000       0.00000000       0.00000000 </v>
   <v>       0.00000000       0.50000000       0.00000000 </v>
   <v>       0.50000000       0.50000000       0.00000000 </v>
   <v>       0.00000000       0.00000000       0.50000000 </v>
   <v>       0.50000000       0.00000000       0.50000000 </v>
   <v>       0.00000000       0.50000000       0.50000000 </v>
   <v>       0.50000000       0.50000000       0.50000000 </v>
  </varray>
  <varray name="weights" >
   <v>       0.12500000 </v>
   <v>       0.12500000 </v>
   <v>       0.12500000 </v>
   <v>       0.12500000 </v>
   <v>       0.12500000 </v>
   <v>       0.12500000 </v>
   <v>       0.12500000 </v>
   <v>       0.12500000 </v>
  </varray>
  <varray name="tetrahedronlist"  type="int" >
   <v type="int" >        2        1        2        4        5 </v>
   <v type="int" >        2        1        3        4        5 </v>
   <v type="int" >        2        3        4        5        7 </v>
   <v type="int" >        2        2        4        5        6 </v>
   <v type="int" >        2        4        5        6        8 </v>
   <v type="int" >        2        4        5        7        8 </v>
   <v type="int" >        2        1        2        3        6 </v>
   <v type="int" >        2        2        3        4        6 </v>
   <v type="int" >        2        3        4        6        8 </v>
   <v type="int" >        2        1        3        5        6 </v>
   <v type="int" >        2        3        5        6        7 </v>
   <v type="int" >        2        3        6        7        8 </v>
   <v type="int" >        2        2        3        4        7 </v>
   <v type="int" >        2        1        2        3        7 </v>
   <v type="int" >        2        1        2        5        7 </v>
   <v type="int" >        2        2        4        7        8 </v>
   <v type="int" >        2        2        6        7        8 </v>
   <v type="int" >        2        2        5        6        7 </v>
   <v type="int" >        2        1        3        4        8 </v>
   <v type="int" >        2        1        2        4        8 </v>
   <v type="int" >        2        1        2        6        8 </v>
   <v type="int" >        2        1        3        7        8 </v>
   <v type="int" >        2        1        5        7        8 </v>
   <v type="int" >        2        1        5        6        8 </v>
  </varray>
  <i name="volumeweight">      0.02083333 </i>
 </kpoints>
 <parameters>
  <separator name="general" >
   <i type="string" name="SYSTEM">La2O2S</i>
   <i type="logical" name="LCOMPAT"> F  </i>
  </separator>
  <separator name="electronic" >
   <i type="string" name="PREC">normal</i>
   <i name="ENMAX">    600.00000000</i>
   <i name="ENAUG">    900.00000000</i>
   <i name="EDIFF">      0.00000100</i>
   <i type="int" name="IALGO">    38</i>
   <i type="int" name="IWAVPR">    11</i>
   <i type="int" name="NBANDS">   280</i>
   <i name="NELECT">    456.00000000</i>
   <i type="int" name="TURBO">     0</i>
   <i type="int" name="IRESTART">     0</i>
   <i type="int" name="NREBOOT">     0</i>
   <i type="int" name="NMIN">     0</i>
   <i name="EREF">      0.00000000</i>
   <separator name="electronic smearing" >
    <i type="int" name="ISMEAR">    -5</i>
    <i name="SIGMA">      0.20000000</i>
    <i name="KSPACING">      0.50000000</i>
    <i type="logical" name="KGAMMA"> T  </i>
   </separator>
   <separator name="electronic projectors" >
    <i type="logical" name="LREAL"> F  </i>
    <v name="ROPT">      0.00000000      0.00000000      0.00000000      0.00000000      0.00000000</v>
    <i type="int" name="LMAXPAW">  -100</i>
    <i type="int" name="LMAXMIX">     2</i>
    <i type="logical" name="NLSPLINE"> F  </i>
   </separator>
   <separator name="electronic startup" >
    <i type="int" name="ISTART">     0</i>
    <i type="int" name="ICHARG">     2</i>
    <i type="int" name="INIWAV">     1</i>
   </separator>
   <separator name="electronic spin" >
    <i type="int" name="ISPIN">     1</i>
    <i type="logical" name="LNONCOLLINEAR"> F  </i>
    <v name="MAGMOM">      1.00000000      1.00000000      1.00000000      1.00000000      1.00000000      1.00000000      1.00000000      1.00000000      1.00000000      1.00000000      1.00000000      1.00000000      1.00000000      1.00000000      1.00000000      1.00000000      1.00000000      1.00000000      1.00000000      1.00000000
      1.00000000      1.00000000      1.00000000      1.00000000      1.00000000      1.00000000      1.00000000      1.00000000      1.00000000      1.00000000      1.00000000      1.00000000      1.00000000      1.00000000      1.00000000      1.00000000      1.00000000      1.00000000      1.00000000      1.00000000
      1.00000000      1.00000000      1.00000000      1.00000000      1.00000000      1.00000000      1.00000000      1.00000000      1.00000000      1.00000000      1.00000000      1.00000000      1.00000000      1.00000000      1.00000000      1.00000000      1.00000000      1.00000000</v>
    <i name="NUPDOWN">     -1.00000000</i>
    <i type="logical" name="LSORBIT"> F  </i>
    <v name="SAXIS">      0.00000000      0.00000000      1.00000000</v>
    <i type="logical" name="LSPIRAL"> F  </i>
    <v name="QSPIRAL">      0.00000000      0.00000000      0.00000000</v>
    <i type="logical" name="LZEROZ"> F  </i>
   </separator>
   <separator name="electronic exchange-correlation" >
    <i type="logical" name="LASPH"> F  </i>
    <i type="logical" name="LMETAGGA"> F  </i>
   </separator>
   <separator name="electronic convergence" >
    <i type="int" name="NELM">    60</i>
    <i type="int" name="NELMDL">    -5</i>
    <i type="int" name="NELMIN">     4</i>
    <i name="ENINI">    600.00000000</i>
    <separator name="electronic convergence detail" >
     <i type="logical" name="LDIAG"> T  </i>
     <i type="logical" name="LSUBROT"> F  </i>
     <i name="WEIMIN">      0.00100000</i>
     <i name="EBREAK">      0.00000000</i>
     <i name="DEPER">      0.30000000</i>
     <i type="int" name="NRMM">     4</i>
     <i name="TIME">      0.40000000</i>
    </separator>
   </separator>
   <separator name="electronic mixer" >
    <i name="AMIX">      0.40000000</i>
    <i name="BMIX">      1.00000000</i>
    <i name="AMIN">      0.10000000</i>
    <i name="AMIX_MAG">      1.60000000</i>
    <i name="BMIX_MAG">      1.00000000</i>
    <separator name="electronic mixer details" >
     <i type="int" name="IMIX">     4</i>
     <i type="logical" name="MIXFIRST"> F  </i>
     <i type="int" name="MAXMIX">   -45</i>
     <i name="WC">    100.00000000</i>
     <i type="int" name="INIMIX">     1</i>
     <i type="int" name="MIXPRE">     1</i>
     <i type="int" name="MREMOVE">     5</i>
    </separator>
   </separator>
   <separator name="electronic dipolcorrection" >
    <i type="logical" name="LDIPOL"> F  </i>
    <i type="logical" name="LMONO"> F  </i>
    <i type="int" name="IDIPOL">     0</i>
    <i name="EPSILON">      1.00000000</i>
    <v name="DIPOL">   -100.00000000   -100.00000000   -100.00000000</v>
    <i name="EFIELD">      0.00000000</i>
   </separator>
  </separator>
  <separator name="grids" >
   <i type="int" name="NGX">    70</i>
   <i type="int" name="NGY">    60</i>
   <i type="int" name="NGZ">    70</i>
   <i type="int" name="NGXF">   140</i>
   <i type="int" name="NGYF">   120</i>
   <i type="int" name="NGZF">   140</i>
   <i type="logical" name="ADDGRID"> F  </i>
  </separator>
  <separator name="ionic" >
   <i type="int" name="NSW">   200</i>
   <i type="int" name="IBRION">     2</i>
   <i type="int" name="MDALGO">     0</i>
   <i type="int" name="ISIF">     3</i>
   <i name="PSTRESS">      0.00000000</i>
   <i name="EDIFFG">     -0.01000000</i>
   <i type="int" name="NFREE">    10</i>
   <i name="POTIM">      0.50000000</i>
   <i name="SMASS">     -3.00000000</i>
   <i name="SCALEE">      1.00000000</i>
  </separator>
  <separator name="ionic md" >
   <i name="TEBEG">      0.00010000</i>
   <i name="TEEND">      0.00010000</i>
   <i type="int" name="NBLOCK">     1</i>
   <i type="int" name="KBLOCK">   200</i>
   <i type="int" name="NPACO">   256</i>
   <i name="APACO">     16.00000000</i>
  </separator>
  <separator name="symmetry" >
   <i type="int" name="ISYM">     2</i>
   <i name="SYMPREC">      0.00001000</i>
  </separator>
  <separator name="dos" >
   <i type="int" name="LORBIT">     0</i>
   <v name="RWIGS">     -1.00000000     -1.00000000     -1.00000000     -1.00000000     -1.00000000</v>
   <i type="int" name="NEDOS">   301</i>
   <i name="EMIN">     10.00000000</i>
   <i name="EMAX">    -10.00000000</i>
   <i name="EFERMI">      0.00000000</i>
  </separator>
  <separator name="writing" >
   <i type="int" name="NWRITE">     2</i>
   <i type="logical" name="LWAVE"> F  </i>
   <i type="logical" name="LDOWNSAMPLE"> F  </i>
   <i type="logical" name="LCHARG"> F  </i>
   <i type="logical" name="LPARD"> F  </i>
   <i type="logical" name="LVTOT"> F  </i>
   <i type="logical" name="LVHAR"> F  </i>
   <i type="logical" name="LELF"> F  </i>
   <i type="logical" name="LOPTICS"> F  </i>
   <v name="STM">      0.00000000      0.00000000      0.00000000      0.00000000      0.00000000      0.00000000      0.00000000</v>
  </separator>
  <separator name="performance" >
   <i type="int" name="NPAR">    28</i>
   <i type="int" name="NSIM">     4</i>
   <i type="int" name="NBLK">    -1</i>
   <i type="logical" name="LPLANE"> T  </i>
   <i type="logical" name="LSCALAPACK"> T  </i>
   <i type="logical" name="LSCAAWARE"> F  </i>
   <i type="logical" name="LSCALU"> F  </i>
   <i type="logical" name="LASYNC"> F  </i>
   <i type="logical" name="LORBITALREAL"> F  </i>
  </separator>
  <separator name="miscellaneous" >
   <i type="int" name="IDIOT">     3</i>
   <i type="int" name="ISPECIAL">     0</i>
   <i type="logical" name="LMUSIC"> F  </i>
   <v name="POMASS">      7.01000000     24.30500000    208.98000000     32.06600000     16.00000000</v>
   <v name="DARWINR">      0.00000000      0.00000000      0.00000000      0.00000000      0.00000000</v>
   <v name="DARWINV">      1.00000000      1.00000000      1.00000000      1.00000000      1.00000000</v>
   <i type="logical" name="LCORR"> T  </i>
  </separator>
  <i type="logical" name="GGA_COMPAT"> T  </i>
  <i type="logical" name="LBERRY"> F  </i>
  <i type="int" name="ICORELEVEL">     0</i>
  <i type="logical" name="LDAU"> F  </i>
  <i type="int" name="I_CONSTRAINED_M">     0</i>
  <separator name="electronic exchange-correlation" >
   <i type="string" name="GGA">--</i>
   <i type="int" name="VOSKOWN">     0</i>
   <i type="logical" name="LHFCALC"> F  </i>
   <i type="string" name="PRECFOCK"></i>
   <i type="logical" name="LSYMGRAD"> F  </i>
   <i type="logical" name="LHFONE"> F  </i>
   <i type="logical" name="LRHFCALC"> F  </i>
   <i type="logical" name="LTHOMAS"> F  </i>
   <i type="logical" name="LMODELHF"> F  </i>
   <i name="ENCUT4O">     -1.00000000</i>
   <i type="int" name="EXXOEP">     0</i>
   <i type="int" name="FOURORBIT">     0</i>
   <i name="AEXX">      0.00000000</i>
   <i name="HFALPHA">      0.00000000</i>
   <i name="MCALPHA">      0.00000000</i>
   <i name="ALDAX">      1.00000000</i>
   <i name="AGGAX">      1.00000000</i>
   <i name="ALDAC">      1.00000000</i>
   <i name="AGGAC">      1.00000000</i>
   <i type="int" name="NKREDX">     1</i>
   <i type="int" name="NKREDY">     1</i>
   <i type="int" name="NKREDZ">     1</i>
   <i type="logical" name="SHIFTRED"> F  </i>
   <i type="logical" name="ODDONLY"> F  </i>
   <i type="logical" name="EVENONLY"> F  </i>
   <i type="int" name="LMAXFOCK">     0</i>
   <i type="int" name="NMAXFOCKAE">     0</i>
   <i type="logical" name="LFOCKAEDFT"> F  </i>
   <i name="HFSCREEN">      0.00000000</i>
   <i name="HFSCREENC">      0.00000000</i>
   <i type="int" name="NBANDSGWLOW">     0</i>
  </separator>
  <separator name="vdW DFT" >
   <i type="logical" name="LUSE_VDW"> F  </i>
   <i name="Zab_VDW">     -0.84910000</i>
   <i name="PARAM1">      0.12340000</i>
   <i name="PARAM2">      1.00000000</i>
   <i name="PARAM3">      0.00000000</i>
  </separator>
  <separator name="model GW" >
   <i type="int" name="MODEL_GW">     0</i>
   <i name="MODEL_EPS0">     12.38119177</i>
   <i name="MODEL_ALPHA">      1.00000000</i>
  </separator>
  <separator name="linear response parameters" >
   <i type="logical" name="LEPSILON"> F  </i>
   <i type="logical" name="LRPA"> F  </i>
   <i type="logical" name="LNABLA"> F  </i>
   <i type="logical" name="LVEL"> F  </i>
   <i type="int" name="KINTER">     0</i>
   <i name="CSHIFT">      0.10000000</i>
   <i name="OMEGAMAX">     -1.00000000</i>
   <i name="DEG_THRESHOLD">      0.00200000</i>
   <i name="RTIME">     -0.10000000</i>
   <i name="WPLASMAI">      0.00000000</i>
   <v name="DFIELD">      0.00000000      0.00000000      0.00000000</v>
   <v name="WPLASMA">      0.00000000      0.00000000      0.00000000      0.00000000      0.00000000      0.00000000      0.00000000      0.00000000      0.00000000</v>
  </separator>
  <separator name="orbital magnetization" >
   <i type="logical" name="NUCIND"> F  </i>
   <v name="MAGPOS">      0.00000000      0.00000000      0.00000000</v>
   <i type="logical" name="LNICSALL"> T  </i>
   <i type="logical" name="ORBITALMAG"> F  </i>
   <i type="logical" name="LMAGBLOCH"> F  </i>
   <i type="logical" name="LCHIMAG"> F  </i>
   <i type="logical" name="LGAUGE"> T  </i>
   <i type="int" name="MAGATOM">     0</i>
   <v name="MAGDIPOL">      0.00000000      0.00000000      0.00000000</v>
   <v name="AVECCONST">      0.00000000      0.00000000      0.00000000</v>
  </separator>
  <separator name="response functions" >
   <i type="logical" name="LADDER"> F  </i>
   <i type="logical" name="LRPAFORCE"> F  </i>
   <i type="logical" name="LFXC"> F  </i>
   <i type="logical" name="LHARTREE"> T  </i>
   <i type="int" name="IBSE">     0</i>
   <v type="int" name="KPOINT">    -1     0     0     0</v>
   <i type="logical" name="LTCTE"> F  </i>
   <i type="logical" name="LTETE"> F  </i>
   <i type="logical" name="LTRIPLET"> F  </i>
   <i type="logical" name="LFXCEPS"> F  </i>
   <i type="logical" name="LFXHEG"> F  </i>
   <i type="int" name="NATURALO">     2</i>
   <i type="logical" name="L2ORDER"> F  </i>
   <i type="logical" name="LMP2LT"> F  </i>
   <i type="logical" name="LUSEW"> F  </i>
   <i name="ENCUTGW">     -2.00000000</i>
   <i name="ENCUTGWSOFT">     -2.00000000</i>
   <i name="ENCUTLF">     -1.00000000</i>
   <i type="int" name="LMAXMP2">    -1</i>
   <i name="SCISSOR">      0.00000000</i>
   <i type="int" name="NOMEGA">     0</i>
   <i type="int" name="NOMEGAR">     0</i>
   <i type="int" name="NBANDSGW">    -1</i>
   <i type="int" name="NBANDSO">    -1</i>
   <i type="int" name="NBANDSV">    -1</i>
   <i type="int" name="NELM">     1</i>
   <i type="int" name="NELMHF">     1</i>
   <i type="int" name="DIM">     3</i>
   <i type="int" name="ANTIRES">     0</i>
   <i name="OMEGAMAX">    -30.00000000</i>
   <i name="OMEGAMIN">    -30.00000000</i>
   <i name="OMEGATL">   -200.00000000</i>
   <i type="int" name="OMEGAGRID">   140</i>
   <i name="CSHIFT">     -0.10000000</i>
   <i type="logical" name="SELFENERGY"> F  </i>
   <i type="logical" name="LSPECTRAL"> F  </i>
   <i type="logical" name="LSPECTRALGW"> F  </i>
   <i type="logical" name="LSINGLES"> F  </i>
   <i type="logical" name="LFERMIGW"> F  </i>
   <i type="logical" name="ODDONLYGW"> F  </i>
   <i type="logical" name="EVENONLYGW"> F  </i>
   <i type="int" name="NKREDLFX">     1</i>
   <i type="int" name="NKREDLFY">     1</i>
   <i type="int" name="NKREDLFZ">     1</i>
   <i type="int" name="MAXMEM">  2800</i>
   <i type="int" name="TELESCOPE">     0</i>
   <i type="int" name="TAUPAR">     1</i>
   <i type="int" name="OMEGAPAR">    -1</i>
   <i name="LAMBDA">      1.00000000</i>
  </separator>
  <separator name="External order field" >
   <i name="OFIELD_KAPPA">      0.00000000</i>
   <v name="OFIELD_K">      0.00000000      0.00000000      0.00000000</v>
   <i name="OFIELD_Q6_NEAR">      0.00000000</i>
   <i name="OFIELD_Q6_FAR">      0.00000000</i>
   <i name="OFIELD_A">      0.00000000</i>
  </separator>
 </parameters>
 <atominfo>
  <atoms>      58 </atoms>
  <types>       5 </types>
  <array name="atoms" >
   <dimension dim="1">ion</dimension>
   <field type="string">element</field>
   <field type="int">atomtype</field>
   <set>
    <rc><c>Li</c><c>   1</c></rc>
    <rc><c>Li</c><c>   1</c></rc>
    <rc><c>Li</c><c>   1</c></rc>
    <rc><c>Li</c><c>   1</c></rc>
    <rc><c>Mg</c><c>   2</c></rc>
    <rc><c>Mg</c><c>   2</c></rc>
    <rc><c>Mg</c><c>   2</c></rc>
    <rc><c>Mg</c><c>   2</c></rc>
    <rc><c>Mg</c><c>   2</c></rc>
    <rc><c>Mg</c><c>   2</c></rc>
    <rc><c>Bi</c><c>   3</c></rc>
    <rc><c>Bi</c><c>   3</c></rc>
    <rc><c>Bi</c><c>   3</c></rc>
    <rc><c>Bi</c><c>   3</c></rc>
    <rc><c>Bi</c><c>   3</c></rc>
    <rc><c>Bi</c><c>   3</c></rc>
    <rc><c>Bi</c><c>   3</c></rc>
    <rc><c>Bi</c><c>   3</c></rc>
    <rc><c>Bi</c><c>   3</c></rc>
    <rc><c>Bi</c><c>   3</c></rc>
    <rc><c>Bi</c><c>   3</c></rc>
    <rc><c>Bi</c><c>   3</c></rc>
    <rc><c>Bi</c><c>   3</c></rc>
    <rc><c>Bi</c><c>   3</c></rc>
    <rc><c>Bi</c><c>   3</c></rc>
    <rc><c>Bi</c><c>   3</c></rc>
    <rc><c>S </c><c>   4</c></rc>
    <rc><c>S </c><c>   4</c></rc>
    <rc><c>S </c><c>   4</c></rc>
    <rc><c>S </c><c>   4</c></rc>
    <rc><c>S </c><c>   4</c></rc>
    <rc><c>S </c><c>   4</c></rc>
    <rc><c>S </c><c>   4</c></rc>
    <rc><c>S </c><c>   4</c></rc>
    <rc><c>S </c><c>   4</c></rc>
    <rc><c>S </c><c>   4</c></rc>
    <rc><c>S </c><c>   4</c></rc>
    <rc><c>S </c><c>   4</c></rc>
    <rc><c>S </c><c>   4</c></rc>
    <rc><c>S </c><c>   4</c></rc>
    <rc><c>S </c><c>   4</c></rc>
    <rc><c>S </c><c>   4</c></rc>
    <rc><c>O </c><c>   5</c></rc>
    <rc><c>O </c><c>   5</c></rc>
    <rc><c>O </c><c>   5</c></rc>
    <rc><c>O </c><c>   5</c></rc>
    <rc><c>O </c><c>   5</c></rc>
    <rc><c>O </c><c>   5</c></rc>
    <rc><c>O </c><c>   5</c></rc>
    <rc><c>O </c><c>   5</c></rc>
    <rc><c>O </c><c>   5</c></rc>
    <rc><c>O </c><c>   5</c></rc>
    <rc><c>O </c><c>   5</c></rc>
    <rc><c>O </c><c>   5</c></rc>
    <rc><c>O </c><c>   5</c></rc>
    <rc><c>O </c><c>   5</c></rc>
    <rc><c>O </c><c>   5</c></rc>
    <rc><c>O </c><c>   5</c></rc>
   </set>
  </array>
  <array name="atomtypes" >
   <dimension dim="1">type</dimension>
   <field type="int">atomspertype</field>
   <field type="string">element</field>
   <field>mass</field>
   <field>valence</field>
   <field type="string">pseudopotential</field>
   <set>
    <rc><c>   4</c><c>Li</c><c>      7.01000000</c><c>      3.00000000</c><c>  PAW_PBE Li_sv 10Sep2004               </c></rc>
    <rc><c>   6</c><c>Mg</c><c>     24.30500000</c><c>      2.00000000</c><c>  PAW_PBE Mg 13Apr2007                  </c></rc>
    <rc><c>  16</c><c>Bi</c><c>    208.98000000</c><c>     15.00000000</c><c>  PAW_PBE Bi_d 06Sep2000                </c></rc>
    <rc><c>  16</c><c>S </c><c>     32.06600000</c><c>      6.00000000</c><c>  PAW_PBE S 06Sep2000                   </c></rc>
    <rc><c>  16</c><c>O </c><c>     16.00000000</c><c>      6.00000000</c><c>  PAW_PBE O 08Apr2002                   </c></rc>
   </set>
  </array>
 </atominfo>
 <structure name="initialpos" >
  <crystal>
   <varray name="basis" >
    <v>      11.17850000       0.00000000       0.00000000 </v>
    <v>       0.00000000       9.57460000       0.00000000 </v>
    <v>       0.00000000       0.00000000      11.18240000 </v>
   </varray>
   <i name="volume">   1196.84853820 </i>
   <varray name="rec_basis" >
    <v>       0.08945744       0.00000000       0.00000000 </v>
    <v>       0.00000000       0.10444301       0.00000000 </v>
    <v>       0.00000000       0.00000000       0.08942624 </v>
   </varray>
  </crystal>
  <varray name="positions" >
   <v>       0.12461000       0.99984000       0.18687000 </v>
   <v>       0.62539000       0.99984000       0.43687000 </v>
   <v>       0.62461000       0.99984000       0.18687000 </v>
   <v>       0.12461000       0.99984000       0.68687000 </v>
   <v>       0.87539000       0.00017000       0.43687000 </v>
   <v>       0.87461000       0.00017000       0.18687000 </v>
   <v>       0.12539000       0.99984000       0.93687000 </v>
   <v>       0.37539000       0.00017000       0.93687000 </v>
   <v>       0.87539000       0.00017000       0.93687000 </v>
   <v>       0.62461000       0.99984000       0.68687000 </v>
   <v>       0.00013000       0.29519000       0.06281000 </v>
   <v>       0.25013000       0.70481000       0.06281000 </v>
   <v>       0.24987000       0.29519000       0.31282000 </v>
   <v>       0.49987000       0.70481000       0.31282000 </v>
   <v>       0.50013000       0.29519000       0.06281000 </v>
   <v>       0.75013000       0.70481000       0.06281000 </v>
   <v>       0.74987000       0.29519000       0.31282000 </v>
   <v>       0.99987000       0.70481000       0.31282000 </v>
   <v>       0.00013000       0.29519000       0.56281000 </v>
   <v>       0.25013000       0.70481000       0.56281000 </v>
   <v>       0.24987000       0.29519000       0.81282000 </v>
   <v>       0.49987000       0.70481000       0.81282000 </v>
   <v>       0.50013000       0.29519000       0.56281000 </v>
   <v>       0.75013000       0.70481000       0.56281000 </v>
   <v>       0.74987000       0.29519000       0.81282000 </v>
   <v>       0.99987000       0.70481000       0.81282000 </v>
   <v>       0.25005000       0.32677000       0.06286000 </v>
   <v>       0.00005000       0.67323000       0.06286000 </v>
   <v>       0.49995000       0.32677000       0.31286000 </v>
   <v>       0.24995000       0.67323000       0.31286000 </v>
   <v>       0.75005000       0.32677000       0.06286000 </v>
   <v>       0.50005000       0.67323000       0.06286000 </v>
   <v>       0.99995000       0.32677000       0.31286000 </v>
   <v>       0.74995000       0.67323000       0.31286000 </v>
   <v>       0.25005000       0.32677000       0.56286000 </v>
   <v>       0.00005000       0.67323000       0.56286000 </v>
   <v>       0.49995000       0.32677000       0.81286000 </v>
   <v>       0.24995000       0.67323000       0.81286000 </v>
   <v>       0.75005000       0.32677000       0.56286000 </v>
   <v>       0.50005000       0.67323000       0.56286000 </v>
   <v>       0.99995000       0.32677000       0.81286000 </v>
   <v>       0.74995000       0.67323000       0.81286000 </v>
   <v>       0.49987000       0.07798000       0.06246000 </v>
   <v>       0.24987000       0.92202000       0.06246000 </v>
   <v>       0.25013000       0.07798000       0.31246000 </v>
   <v>       0.00013000       0.92202000       0.31246000 </v>
   <v>       0.99987000       0.07798000       0.06246000 </v>
   <v>       0.74987000       0.92202000       0.06246000 </v>
   <v>       0.75013000       0.07798000       0.31246000 </v>
   <v>       0.50013000       0.92202000       0.31246000 </v>
   <v>       0.49987000       0.07798000       0.56246000 </v>
   <v>       0.24987000       0.92202000       0.56246000 </v>
   <v>       0.25013000       0.07798000       0.81246000 </v>
   <v>       0.00013000       0.92202000       0.81246000 </v>
   <v>       0.99987000       0.07798000       0.56246000 </v>
   <v>       0.74987000       0.92202000       0.56246000 </v>
   <v>       0.75013000       0.07798000       0.81246000 </v>
   <v>       0.50013000       0.92202000       0.81246000 </v>
  </varray>
 </structure>
 <calculation>
  <scstep>
   <time name="dav">   60.38   60.81</time>
   <time name="total">   60.47   60.90</time>
   <energy>
    <i name="alphaZ">   1054.17224280 </i>
    <i name="ewald"> -30175.82298925 </i>
    <i name="hartreedc"> -12706.29301819 </i>
    <i name="XCdc">   1173.48332039 </i>
    <i name="pawpsdc">  36541.05238669 </i>
    <i name="pawaedc"> -35795.85877930 </i>
    <i name="eentropy">      0.00000000 </i>
    <i name="bandstr">   1910.22143930 </i>
    <i name="atom">  43643.51795008 </i>
    <i name="e_fr_energy">   5644.47255252 </i>
    <i name="e_wo_entrp">   5644.47255252 </i>
    <i name="e_0_energy">   5644.47255252 </i>
   </energy>
  </scstep>
  <scstep>
   <time name="dav">   61.98   62.46</time>
   <time name="total">   61.99   62.47</time>
   <energy>
    <i name="e_fr_energy">    724.35934475 </i>
    <i name="e_wo_entrp">    724.35934475 </i>
    <i name="e_0_energy">    724.35934475 </i>
   </energy>
  </scstep>
  <scstep>
   <time name="dav">   69.32   69.92</time>
   <time name="total">   69.32   69.92</time>
   <energy>
    <i name="e_fr_energy">   -244.19350459 </i>
    <i name="e_wo_entrp">   -244.19350459 </i>
    <i name="e_0_energy">   -244.19350459 </i>
   </energy>
  </scstep>
  <scstep>
   <time name="dav">   71.96   72.76</time>
   <time name="total">   71.96   72.76</time>
   <energy>
    <i name="e_fr_energy">   -329.18579597 </i>
    <i name="e_wo_entrp">   -329.18579597 </i>
    <i name="e_0_energy">   -329.18579597 </i>
   </energy>
  </scstep>
  <scstep>
   <time name="dav">   90.33   90.91</time>
   <time name="total">   91.05   91.63</time>
   <energy>
    <i name="e_fr_energy">   -335.16329779 </i>
    <i name="e_wo_entrp">   -335.16329779 </i>
    <i name="e_0_energy">   -335.16329779 </i>
   </energy>
  </scstep>
  <scstep>
   <time name="dav">   84.79   85.33</time>
   <time name="total">   85.58   86.12</time>
   <energy>
    <i name="e_fr_energy">   -281.03922838 </i>
    <i name="e_wo_entrp">   -281.03922838 </i>
    <i name="e_0_energy">   -281.03922838 </i>
   </energy>
  </scstep>
  <scstep>
   <time name="dav">   65.78   66.30</time>
   <time name="total">   66.56   67.09</time>
   <energy>
    <i name="e_fr_energy">   -282.83300043 </i>
    <i name="e_wo_entrp">   -282.83300043 </i>
    <i name="e_0_energy">   -282.83300043 </i>
   </energy>
  </scstep>
  <scstep>
   <time name="dav">   78.16   79.04</time>
   <time name="total">   78.94   79.83</time>
   <energy>
    <i name="e_fr_energy">   -281.44878092 </i>
    <i name="e_wo_entrp">   -281.44878092 </i>
    <i name="e_0_energy">   -281.44878092 </i>
   </energy>
  </scstep>
  <scstep>
   <time name="dav">   71.51   72.08</time>
   <time name="total">   72.30   72.87</time>
   <energy>
    <i name="e_fr_energy">   -281.08378610 </i>
    <i name="e_wo_entrp">   -281.08378610 </i>
    <i name="e_0_energy">   -281.08378610 </i>
   </energy>
  </scstep>
  <scstep>
   <time name="dav">   76.23   76.82</time>
   <time name="total">   77.01   77.61</time>
   <energy>
    <i name="e_fr_energy">   -281.12582256 </i>
    <i name="e_wo_entrp">   -281.12582256 </i>
    <i name="e_0_energy">   -281.12582256 </i>
   </energy>
  </scstep>
  <scstep>
   <time name="dav">   80.03   80.83</time>
   <time name="total">   80.81   81.62</time>
   <energy>
    <i name="e_fr_energy">   -280.81004720 </i>
    <i name="e_wo_entrp">   -280.81004720 </i>
    <i name="e_0_energy">   -280.81004720 </i>
   </energy>
  </scstep>
  <scstep>
   <time name="dav">   70.03   70.49</time>
   <time name="total">   70.82   71.28</time>
   <energy>
    <i name="e_fr_energy">   -280.81776906 </i>
    <i name="e_wo_entrp">   -280.81776906 </i>
    <i name="e_0_energy">   -280.81776906 </i>
   </energy>
  </scstep>
  <scstep>
   <time name="dav">   83.56   84.11</time>
   <time name="total">   84.34   84.91</time>
   <energy>
    <i name="e_fr_energy">   -280.81940459 </i>
    <i name="e_wo_entrp">   -280.81940459 </i>
    <i name="e_0_energy">   -280.81940459 </i>
   </energy>
  </scstep>
  <scstep>
   <time name="dav">   71.31   71.85</time>
   <time name="total">   72.09   72.64</time>
   <energy>
    <i name="e_fr_energy">   -280.82052699 </i>
    <i name="e_wo_entrp">   -280.82052699 </i>
    <i name="e_0_energy">   -280.82052699 </i>
   </energy>
  </scstep>
  <scstep>
   <time name="dav">   74.65   75.16</time>
   <time name="total">   75.50   76.04</time>
   <energy>
    <i name="e_fr_energy">   -280.82032805 </i>
    <i name="e_wo_entrp">   -280.82032805 </i>
    <i name="e_0_energy">   -280.82032805 </i>
   </energy>
  </scstep>
  <scstep>
   <time name="dav">   73.55   74.18</time>
   <time name="total">   74.38   75.02</time>
   <energy>
    <i name="e_fr_energy">   -280.82031624 </i>
    <i name="e_wo_entrp">   -280.82031624 </i>
    <i name="e_0_energy">   -280.82031624 </i>
   </energy>
  </scstep>
  <scstep>
   <time name="dav">   77.65   78.28</time>
   <time name="total">   78.43   79.10</time>
   <energy>
    <i name="e_fr_energy">   -280.82028908 </i>
    <i name="e_wo_entrp">   -280.82028908 </i>
    <i name="e_0_energy">   -280.82028908 </i>
   </energy>
  </scstep>
  <scstep>
   <time name="dav">   75.27   75.86</time>
   <time name="total">   76.06   76.65</time>
   <energy>
    <i name="e_fr_energy">   -280.82030452 </i>
    <i name="e_wo_entrp">   -280.82030452 </i>
    <i name="e_0_energy">   -280.82030452 </i>
   </energy>
  </scstep>
  <scstep>
   <time name="dav">   65.67   66.19</time>
   <time name="total">   66.45   66.98</time>
   <energy>
    <i name="e_fr_energy">   -280.82030686 </i>
    <i name="e_wo_entrp">   -280.82030686 </i>
    <i name="e_0_energy">   -280.82030686 </i>
   </energy>
  </scstep>
  <scstep>
   <time name="dav">   67.72   68.28</time>
   <time name="total">   68.50   69.07</time>
   <energy>
    <i name="e_fr_energy">   -280.82030929 </i>
    <i name="e_wo_entrp">   -280.82030929 </i>
    <i name="e_0_energy">   -280.82030929 </i>
   </energy>
  </scstep>
  <scstep>
   <time name="dav">   47.99   48.36</time>
   <time name="total">   48.07   48.44</time>
   <energy>
    <i name="alphaZ">   1054.17224280 </i>
    <i name="ewald"> -30175.82298925 </i>
    <i name="hartreedc"> -12932.27238562 </i>
    <i name="XCdc">   1198.08534171 </i>
    <i name="pawpsdc">  43578.04144063 </i>
    <i name="pawaedc"> -42806.47321044 </i>
    <i name="eentropy">      0.00000000 </i>
    <i name="bandstr">  -3840.06869989 </i>
    <i name="atom">  43643.51795008 </i>
    <i name="e_fr_energy">   -280.82030997 </i>
    <i name="e_wo_entrp">   -280.82030997 </i>
    <i name="e_0_energy">   -280.82030997 </i>
   </energy>
  </scstep>
  <structure>
   <crystal>
    <varray name="basis" >
     <v>      11.17850000       0.00000000       0.00000000 </v>
     <v>       0.00000000       9.57460000       0.00000000 </v>
     <v>       0.00000000       0.00000000      11.18240000 </v>
    </varray>
    <i name="volume">   1196.84853820 </i>
    <varray name="rec_basis" >
     <v>       0.08945744       0.00000000       0.00000000 </v>
     <v>       0.00000000       0.10444301       0.00000000 </v>
     <v>       0.00000000       0.00000000       0.08942624 </v>
    </varray>
   </crystal>
   <varray name="positions" >
    <v>       0.12461000       0.99984000       0.18687000 </v>
    <v>       0.62539000       0.99984000       0.43687000 </v>
    <v>       0.62461000       0.99984000       0.18687000 </v>
    <v>       0.12461000       0.99984000       0.68687000 </v>
    <v>       0.87539000       0.00017000       0.43687000 </v>
    <v>       0.87461000       0.00017000       0.18687000 </v>
    <v>       0.12539000       0.99984000       0.93687000 </v>
    <v>       0.37539000       0.00017000       0.93687000 </v>
    <v>       0.87539000       0.00017000       0.93687000 </v>
    <v>       0.62461000       0.99984000       0.68687000 </v>
    <v>       0.00013000       0.29519000       0.06281000 </v>
    <v>       0.25013000       0.70481000       0.06281000 </v>
    <v>       0.24987000       0.29519000       0.31282000 </v>
    <v>       0.49987000       0.70481000       0.31282000 </v>
    <v>       0.50013000       0.29519000       0.06281000 </v>
    <v>       0.75013000       0.70481000       0.06281000 </v>
    <v>       0.74987000       0.29519000       0.31282000 </v>
    <v>       0.99987000       0.70481000       0.31282000 </v>
    <v>       0.00013000       0.29519000       0.56281000 </v>
    <v>       0.25013000       0.70481000       0.56281000 </v>
    <v>       0.24987000       0.29519000       0.81282000 </v>
    <v>       0.49987000       0.70481000       0.81282000 </v>
    <v>       0.50013000       0.29519000       0.56281000 </v>
    <v>       0.75013000       0.70481000       0.56281000 </v>
    <v>       0.74987000       0.29519000       0.81282000 </v>
    <v>       0.99987000       0.70481000       0.81282000 </v>
    <v>       0.25005000       0.32677000       0.06286000 </v>
    <v>       0.00005000       0.67323000       0.06286000 </v>
    <v>       0.49995000       0.32677000       0.31286000 </v>
    <v>       0.24995000       0.67323000       0.31286000 </v>
    <v>       0.75005000       0.32677000       0.06286000 </v>
    <v>       0.50005000       0.67323000       0.06286000 </v>
    <v>       0.99995000       0.32677000       0.31286000 </v>
    <v>       0.74995000       0.67323000       0.31286000 </v>
    <v>       0.25005000       0.32677000       0.56286000 </v>
    <v>       0.00005000       0.67323000       0.56286000 </v>
    <v>       0.49995000       0.32677000       0.81286000 </v>
    <v>       0.24995000       0.67323000       0.81286000 </v>
    <v>       0.75005000       0.32677000       0.56286000 </v>
    <v>       0.50005000       0.67323000       0.56286000 </v>
    <v>       0.99995000       0.32677000       0.81286000 </v>
    <v>       0.74995000       0.67323000       0.81286000 </v>
    <v>       0.49987000       0.07798000       0.06246000 </v>
    <v>       0.24987000       0.92202000       0.06246000 </v>
    <v>       0.25013000       0.07798000       0.31246000 </v>
    <v>       0.00013000       0.92202000       0.31246000 </v>
    <v>       0.99987000       0.07798000       0.06246000 </v>
    <v>       0.74987000       0.92202000       0.06246000 </v>
    <v>       0.75013000       0.07798000       0.31246000 </v>
    <v>       0.50013000       0.92202000       0.31246000 </v>
    <v>       0.49987000       0.07798000       0.56246000 </v>
    <v>       0.24987000       0.92202000       0.56246000 </v>
    <v>       0.25013000       0.07798000       0.81246000 </v>
    <v>       0.00013000       0.92202000       0.81246000 </v>
    <v>       0.99987000       0.07798000       0.56246000 </v>
    <v>       0.74987000       0.92202000       0.56246000 </v>
    <v>       0.75013000       0.07798000       0.81246000 </v>
    <v>       0.50013000       0.92202000       0.81246000 </v>
   </varray>
  </structure>
  <varray name="forces" >
   <v>       1.33501068       0.08434729       1.28784029 </v>
   <v>      -1.33256373      -0.12311509      -0.14552392 </v>
   <v>      -1.35875134      -0.10362348      -0.17515442 </v>
   <v>       0.31904010      -0.07186289      -1.27631099 </v>
   <v>       1.12079901       0.11321055       1.93967356 </v>
   <v>      -0.20027233      -0.31070787       0.42601141 </v>
   <v>       0.68488043      -0.20947246      -0.44875755 </v>
   <v>       1.80722059       0.11072714       0.13359900 </v>
   <v>      -1.88466538      -0.08538837      -1.88572221 </v>
   <v>      -0.60358218       0.22267811       0.44636284 </v>
   <v>       0.42699703       3.08966959       0.27548117 </v>
   <v>       0.59473730      -1.20930825       0.69303573 </v>
   <v>       0.46913292      -2.60933720       0.50561200 </v>
   <v>      -0.65548849       1.85886482       0.25013704 </v>
   <v>      -0.19525427      -0.93971823       0.33691745 </v>
   <v>      -0.82621198      -1.23701967      -0.06836977 </v>
   <v>      -0.67637604       2.18415483       0.29428827 </v>
   <v>       0.89729310      -1.24661791       0.62168974 </v>
   <v>       0.54123290      -0.89250549      -0.09309012 </v>
   <v>       0.33057584       2.60541999      -0.41603570 </v>
   <v>       0.44552840       1.20221991      -0.81660231 </v>
   <v>      -0.19093742       0.03842143      -0.30526356 </v>
   <v>      -0.73231578      -0.91810682      -0.32413250 </v>
   <v>      -0.19192062      -1.05367295       0.06019198 </v>
   <v>      -0.34181709       0.00346476      -0.29060347 </v>
   <v>       0.13550226      -1.22924749      -0.81250296 </v>
   <v>      -0.50409676       0.04319256      -0.51307356 </v>
   <v>      -0.17516326       0.15815380      -0.10650006 </v>
   <v>       0.66986384       0.19530474      -0.14133148 </v>
   <v>      -0.49585851      -0.15944447      -0.57510122 </v>
   <v>       0.52285842      -0.11788007       0.09488175 </v>
   <v>       0.12368800      -0.12446756      -0.27180838 </v>
   <v>      -0.63045903      -0.02115689      -0.47724395 </v>
   <v>       0.47046810      -0.03521180      -0.18793264 </v>
   <v>      -0.17643154       0.20921492       0.51546965 </v>
   <v>      -0.51874797      -0.09643870       0.02604895 </v>
   <v>       0.06103289       0.13743795       0.10452383 </v>
   <v>      -0.29975155      -0.06763923       0.58001207 </v>
   <v>       0.10650873       0.11993109      -0.09451131 </v>
   <v>       0.61407591      -0.17988623       0.32501329 </v>
   <v>      -0.02409666      -0.07143349       0.53637045 </v>
   <v>       0.23670136       0.02624604       0.17660398 </v>
   <v>      -0.39622656       0.86619298      -0.61871444 </v>
   <v>      -1.04051071       1.03951733      -1.74852869 </v>
   <v>      -0.82986059       2.14753828      -0.82612764 </v>
   <v>      -1.91247645       1.14122377      -1.04591744 </v>
   <v>      -0.58038237      -2.44949226      -0.51464666 </v>
   <v>       2.01150506       1.22493628       0.62943773 </v>
   <v>       1.26260709      -1.70945627      -0.20338325 </v>
   <v>       1.53305744      -1.49099877      -0.10936668 </v>
   <v>       1.93931141       0.71809488       0.58457471 </v>
   <v>      -0.63954247      -2.22126825       0.75197079 </v>
   <v>      -0.83505465      -0.96271552       1.83498885 </v>
   <v>       0.49141535       1.14350179       2.01359698 </v>
   <v>      -0.80617602       0.80085590      -0.51973418 </v>
   <v>      -0.40298870       0.69263333      -0.78354020 </v>
   <v>       0.28198102       0.06982603       0.22964490 </v>
   <v>       0.02495528      -0.29978640       0.12155288 </v>
  </varray>
  <varray name="stress" >
   <v>      -2.26578890      -0.45265628      -3.35796489 </v>
   <v>      -0.45265629     -10.67050335      -0.29537027 </v>
   <v>      -3.35796455      -0.29537033      -0.56466649 </v>
  </varray>
  <energy>
   <i name="e_fr_energy">   -292.48785630 </i>
   <i name="e_wo_entrp">   -292.48785630 </i>
   <i name="e_0_energy">      0.00000000 </i>
  </energy>
  <time name="totalsc"> 1650.25 1663.49</time>
 </calculation>
 <calculation>
  <scstep>
   <time name="dav">   67.54   68.19</time>
   <time name="total">   68.32   68.98</time>
   <energy>
    <i name="alphaZ">   1063.08195440 </i>
    <i name="ewald"> -30242.62410579 </i>
    <i name="hartreedc"> -12968.17319330 </i>
    <i name="XCdc">   1203.15061736 </i>
    <i name="pawpsdc">  43577.99357777 </i>
    <i name="pawaedc"> -42806.42739785 </i>
    <i name="eentropy">      0.00000000 </i>
    <i name="bandstr">  -3749.71185104 </i>
    <i name="atom">  43643.51795008 </i>
    <i name="e_fr_energy">   -279.19244837 </i>
    <i name="e_wo_entrp">   -279.19244837 </i>
    <i name="e_0_energy">   -279.19244837 </i>
   </energy>
  </scstep>
  <scstep>
   <time name="dav">   67.15   67.70</time>
   <time name="total">   67.94   68.49</time>
   <energy>
    <i name="e_fr_energy">   -284.11171873 </i>
    <i name="e_wo_entrp">   -284.11171873 </i>
    <i name="e_0_energy">   -284.11171873 </i>
   </energy>
  </scstep>
  <scstep>
   <time name="dav">   83.78   84.44</time>
   <time name="total">   84.56   85.23</time>
   <energy>
    <i name="e_fr_energy">   -283.96027981 </i>
    <i name="e_wo_entrp">   -283.96027981 </i>
    <i name="e_0_energy">   -283.96027981 </i>
   </energy>
  </scstep>
  <scstep>
   <time name="dav">   75.63   76.23</time>
   <time name="total">   76.41   77.02</time>
   <energy>
    <i name="e_fr_energy">   -283.82115783 </i>
    <i name="e_wo_entrp">   -283.82115783 </i>
    <i name="e_0_energy">   -283.82115783 </i>
   </energy>
  </scstep>
  <scstep>
   <time name="dav">   76.89   77.49</time>
   <time name="total">   77.67   78.28</time>
   <energy>
    <i name="e_fr_energy">   -283.77442248 </i>
    <i name="e_wo_entrp">   -283.77442248 </i>
    <i name="e_0_energy">   -283.77442248 </i>
   </energy>
  </scstep>
  <scstep>
   <time name="dav">   75.48   76.30</time>
   <time name="total">   76.26   77.09</time>
   <energy>
    <i name="e_fr_energy">   -283.76943914 </i>
    <i name="e_wo_entrp">   -283.76943914 </i>
    <i name="e_0_energy">   -283.76943914 </i>
   </energy>
  </scstep>
  <scstep>
   <time name="dav">   76.52   77.09</time>
   <time name="total">   77.30   77.88</time>
   <energy>
    <i name="e_fr_energy">   -283.76922104 </i>
    <i name="e_wo_entrp">   -283.76922104 </i>
    <i name="e_0_energy">   -283.76922104 </i>
   </energy>
  </scstep>
  <scstep>
   <time name="dav">   68.47   69.21</time>
   <time name="total">   69.25   70.00</time>
   <energy>
    <i name="e_fr_energy">   -283.76846448 </i>
    <i name="e_wo_entrp">   -283.76846448 </i>
    <i name="e_0_energy">   -283.76846448 </i>
   </energy>
  </scstep>
  <scstep>
   <time name="dav">   91.19   92.30</time>
   <time name="total">   91.97   93.09</time>
   <energy>
    <i name="e_fr_energy">   -283.76842966 </i>
    <i name="e_wo_entrp">   -283.76842966 </i>
    <i name="e_0_energy">   -283.76842966 </i>
   </energy>
  </scstep>
  <scstep>
   <time name="dav">   67.52   68.09</time>
   <time name="total">   68.30   68.88</time>
   <energy>
    <i name="e_fr_energy">   -283.76845517 </i>
    <i name="e_wo_entrp">   -283.76845517 </i>
    <i name="e_0_energy">   -283.76845517 </i>
   </energy>
  </scstep>
  <scstep>
   <time name="dav">   75.47   76.08</time>
   <time name="total">   76.26   76.87</time>
   <energy>
    <i name="e_fr_energy">   -283.76846166 </i>
    <i name="e_wo_entrp">   -283.76846166 </i>
    <i name="e_0_energy">   -283.76846166 </i>
   </energy>
  </scstep>
  <scstep>
   <time name="dav">   72.78   73.91</time>
   <time name="total">   73.56   74.70</time>
   <energy>
    <i name="e_fr_energy">   -283.76846212 </i>
    <i name="e_wo_entrp">   -283.76846212 </i>
    <i name="e_0_energy">   -283.76846212 </i>
   </energy>
  </scstep>
  <scstep>
   <time name="dav">   68.99   69.58</time>
   <time name="total">   69.77   70.37</time>
   <energy>
    <i name="e_fr_energy">   -283.76846228 </i>
    <i name="e_wo_entrp">   -283.76846228 </i>
    <i name="e_0_energy">   -283.76846228 </i>
   </energy>
  </scstep>
  <scstep>
   <time name="dav">   55.20   55.75</time>
   <time name="total">   55.27   55.82</time>
   <energy>
    <i name="alphaZ">   1063.08195440 </i>
    <i name="ewald"> -30242.62410579 </i>
    <i name="hartreedc"> -12905.44200191 </i>
    <i name="XCdc">   1200.83272074 </i>
    <i name="pawpsdc">  43892.81398594 </i>
    <i name="pawaedc"> -43124.50217600 </i>
    <i name="eentropy">      0.00000000 </i>
    <i name="bandstr">  -3811.44678964 </i>
    <i name="atom">  43643.51795008 </i>
    <i name="e_fr_energy">   -283.76846218 </i>
    <i name="e_wo_entrp">   -283.76846218 </i>
    <i name="e_0_energy">   -283.76846218 </i>
   </energy>
  </scstep>
  <structure>
   <crystal>
    <varray name="basis" >
     <v>      11.16276253      -0.00314401      -0.02332338 </v>
     <v>      -0.00269290       9.51111994      -0.00175719 </v>
     <v>      -0.02333152      -0.00205227      11.17847663 </v>
    </varray>
    <i name="volume">   1186.81772613 </i>
    <varray name="rec_basis" >
     <v>       0.08958396       0.00002540       0.00018698 </v>
     <v>       0.00002965       0.10514010       0.00001936 </v>
     <v>       0.00018692       0.00001658       0.08945802 </v>
    </varray>
   </crystal>
   <varray name="positions" >
    <v>       0.13037146       0.00026499       0.19242595 </v>
    <v>       0.61963910       0.99921967       0.43624219 </v>
    <v>       0.61874609       0.99931788       0.18611436 </v>
    <v>       0.12598687       0.99947791       0.68136379 </v>
    <v>       0.88022699       0.00074042       0.44523806 </v>
    <v>       0.87374569      -0.00139554       0.18870788 </v>
    <v>       0.12834571       0.99878455       0.93493399 </v>
    <v>       0.38318936       0.00072791       0.93744637 </v>
    <v>       0.86725642      -0.00026024       0.92873469 </v>
    <v>       0.62200514       0.00096199       0.68879568 </v>
    <v>       0.00197278       0.31075763       0.06399847 </v>
    <v>       0.25269669       0.69871677       0.06579987 </v>
    <v>       0.25189462       0.28204257       0.31500129 </v>
    <v>       0.49704113       0.71417609       0.31389913 </v>
    <v>       0.49928735       0.29045513       0.06426352 </v>
    <v>       0.74656435       0.69857714       0.06251504 </v>
    <v>       0.74695099       0.30619510       0.31408961 </v>
    <v>       0.00374242       0.69852878       0.31550207 </v>
    <v>       0.00246578       0.29069301       0.56240839 </v>
    <v>       0.25155665       0.71793769       0.56101516 </v>
    <v>       0.25179275       0.30124751       0.80929705 </v>
    <v>       0.49904598       0.70500359       0.81150304 </v>
    <v>       0.49696957       0.29056402       0.56141164 </v>
    <v>       0.74930174       0.69950096       0.56306968 </v>
    <v>       0.74839483       0.29520746       0.81156629 </v>
    <v>       0.00045478       0.69861630       0.80931473 </v>
    <v>       0.24787449       0.32698763       0.06064652 </v>
    <v>      -0.00070595       0.67402687       0.06240054 </v>
    <v>       0.50284091       0.32775406       0.31225027 </v>
    <v>       0.24781004       0.67242662       0.31037892 </v>
    <v>       0.75230648       0.32617605       0.06326933 </v>
    <v>       0.50058380       0.67260286       0.06168738 </v>
    <v>       0.99722915       0.32666340       0.31080109 </v>
    <v>       0.75198038       0.67305258       0.31204923 </v>
    <v>       0.24928858       0.32782415       0.56508382 </v>
    <v>      -0.00218874       0.67274408       0.56297238 </v>
    <v>       0.50021340       0.32746250       0.81331093 </v>
    <v>       0.24865637       0.67288919       0.81536226 </v>
    <v>       0.75050966       0.32737429       0.56245226 </v>
    <v>       0.50270015       0.67232362       0.56426216 </v>
    <v>       0.99984601       0.32641007       0.81517399 </v>
    <v>       0.75097152       0.67336224       0.81362190 </v>
    <v>       0.49816002       0.08234441       0.05979077 </v>
    <v>       0.24537951       0.92725772       0.05491657 </v>
    <v>       0.24654860       0.08880060       0.30889595 </v>
    <v>      -0.00812361       0.92777018       0.30794775 </v>
    <v>       0.99736526       0.06563797       0.06023973 </v>
    <v>       0.75855098       0.92819197       0.06517549 </v>
    <v>       0.75557899       0.06936672       0.31158257 </v>
    <v>       0.50674616       0.91450744       0.31198817 </v>
    <v>       0.50823942       0.08159820       0.56498195 </v>
    <v>       0.24710995       0.91082790       0.56570412 </v>
    <v>       0.24652618       0.07312925       0.82037643 </v>
    <v>       0.00225078       0.92778166       0.82114698 </v>
    <v>       0.99639081       0.08201520       0.56021778 </v>
    <v>       0.74813084       0.92550991       0.55907968 </v>
    <v>       0.75134694       0.07833183       0.81345072 </v>
    <v>       0.50023770       0.92050949       0.81298440 </v>
   </varray>
  </structure>
  <varray name="forces" >
   <v>       0.70912559       0.01694052       0.66833064 </v>
   <v>      -0.66716229      -0.05137548      -0.16056198 </v>
   <v>      -0.68089503      -0.05503497      -0.13679180 </v>
   <v>       0.22817454      -0.03138095      -0.72081059 </v>
   <v>       0.20631885      -0.11919476       0.54718995 </v>
   <v>       0.13567462       0.04044431      -0.12777724 </v>
   <v>      -0.35480873      -0.01720978       0.25235125 </v>
   <v>       0.57588756      -0.00924916      -0.00496156 </v>
   <v>      -0.45389250      -0.17840167      -0.40417797 </v>
   <v>      -0.02520473      -0.00465162       0.36723040 </v>
   <v>       0.18420294      -0.02612163       0.11366867 </v>
   <v>       0.05309504       0.24964808       0.19616611 </v>
   <v>       0.29319601       3.53003174       0.31922393 </v>
   <v>      -0.35719941      -1.95885983       0.17422043 </v>
   <v>      -0.06539622       1.08158322       0.21353500 </v>
   <v>      -0.16513127       0.31744346       0.08922021 </v>
   <v>      -0.17858610      -0.10406161       0.09823213 </v>
   <v>       0.27123379       0.28729582       0.08261393 </v>
   <v>       0.23353262       0.98368344      -0.02796249 </v>
   <v>       0.34601289      -3.71421265      -0.26222763 </v>
   <v>       0.12185722      -0.15775466      -0.26704232 </v>
   <v>      -0.17269399      -0.57840467      -0.21905259 </v>
   <v>      -0.38490494       0.75403336      -0.17358694 </v>
   <v>      -0.15928402       0.00130613      -0.10141213 </v>
   <v>      -0.06828258       0.40695242      -0.10335151 </v>
   <v>       0.15925094       0.28177238      -0.16127469 </v>
   <v>      -0.19487008       0.22959066      -0.24346163 </v>
   <v>      -0.06912870      -0.30313871      -0.03749685 </v>
   <v>       0.40415273       0.09823320      -0.06792252 </v>
   <v>      -0.29063833      -0.05242211      -0.34764125 </v>
   <v>       0.17644809       0.09674704       0.00810054 </v>
   <v>       0.05543460      -0.04525698      -0.13475020 </v>
   <v>      -0.27521782       0.19100440      -0.18086383 </v>
   <v>       0.18367821      -0.30215893      -0.11495006 </v>
   <v>      -0.11265672       0.06864017       0.35094741 </v>
   <v>      -0.25321380      -0.05063104       0.00184396 </v>
   <v>       0.04603397       0.07789027       0.01024767 </v>
   <v>      -0.15687507      -0.21980209       0.28496065 </v>
   <v>       0.02661407       0.20073360      -0.01011280 </v>
   <v>       0.40519666      -0.12401912       0.21524489 </v>
   <v>      -0.02676271       0.11679913       0.19683799 </v>
   <v>       0.09422362       0.02753298       0.08890971 </v>
   <v>      -0.17291437      -0.96326706      -0.30409716 </v>
   <v>      -0.04408787      -0.67595515      -0.79531257 </v>
   <v>      -0.68856034      -3.97380132      -0.71735571 </v>
   <v>      -0.74806086      -0.71242857      -0.11248761 </v>
   <v>      -0.30341376       0.72733285      -0.36326485 </v>
   <v>       0.65575826      -0.72862154       0.15858935 </v>
   <v>       0.41676010       0.68867044       0.23363903 </v>
   <v>       1.17583823       2.24849229      -0.10944970 </v>
   <v>       1.30897009      -0.79694575       0.33860300 </v>
   <v>      -0.67264529       4.14559391       0.69874450 </v>
   <v>      -0.01260118       0.65117870       0.73216028 </v>
   <v>       0.20692126      -0.71301206       0.67736386 </v>
   <v>      -0.15780046      -0.75573610      -0.05020757 </v>
   <v>      -0.48686595      -0.35855357      -0.28169106 </v>
   <v>      -0.40966038       0.01195944      -0.37835366 </v>
   <v>       0.13582302       0.25012954       0.00223499 </v>
  </varray>
  <varray name="stress" >
   <v>       8.03488009       0.55475860       3.10065387 </v>
   <v>       0.55475879      16.82489603       0.74068405 </v>
   <v>       3.10065404       0.74068389       6.79683196 </v>
  </varray>
  <energy>
   <i name="e_fr_energy">   -295.53415379 </i>
   <i name="e_wo_entrp">   -295.53415379 </i>
   <i name="e_0_energy">      0.00000000 </i>
  </energy>
  <time name="totalsc"> 1139.15 1151.25</time>
 </calculation>
 <calculation>
  <scstep>
   <time name="dav">   64.88   65.69</time>
   <time name="total">   65.66   66.48</time>
   <energy>
    <i name="alphaZ">   1061.73246091 </i>
    <i name="ewald"> -30239.62423817 </i>
    <i name="hartreedc"> -12894.11202740 </i>
    <i name="XCdc">   1199.97251353 </i>
    <i name="pawpsdc">  43892.88479071 </i>
    <i name="pawaedc"> -43124.57363432 </i>
    <i name="eentropy">      0.00000000 </i>
    <i name="bandstr">  -3823.56188740 </i>
    <i name="atom">  43643.51795008 </i>
    <i name="e_fr_energy">   -283.76407207 </i>
    <i name="e_wo_entrp">   -283.76407207 </i>
    <i name="e_0_energy">   -283.76407207 </i>
   </energy>
  </scstep>
  <scstep>
   <time name="dav">   70.78   71.23</time>
   <time name="total">   71.56   72.02</time>
   <energy>
    <i name="e_fr_energy">   -283.90492703 </i>
    <i name="e_wo_entrp">   -283.90492703 </i>
    <i name="e_0_energy">   -283.90492703 </i>
   </energy>
  </scstep>
  <scstep>
   <time name="dav">   82.11   82.92</time>
   <time name="total">   82.89   83.71</time>
   <energy>
    <i name="e_fr_energy">   -283.90157999 </i>
    <i name="e_wo_entrp">   -283.90157999 </i>
    <i name="e_0_energy">   -283.90157999 </i>
   </energy>
  </scstep>
  <scstep>
   <time name="dav">   66.63   66.97</time>
   <time name="total">   67.41   67.75</time>
   <energy>
    <i name="e_fr_energy">   -283.89621122 </i>
    <i name="e_wo_entrp">   -283.89621122 </i>
    <i name="e_0_energy">   -283.89621122 </i>
   </energy>
  </scstep>
  <scstep>
   <time name="dav">   82.27   82.69</time>
   <time name="total">   83.06   83.48</time>
   <energy>
    <i name="e_fr_energy">   -283.89506713 </i>
    <i name="e_wo_entrp">   -283.89506713 </i>
    <i name="e_0_energy">   -283.89506713 </i>
   </energy>
  </scstep>
  <scstep>
   <time name="dav">   74.71   75.38</time>
   <time name="total">   75.49   76.17</time>
   <energy>
    <i name="e_fr_energy">   -283.89499014 </i>
    <i name="e_wo_entrp">   -283.89499014 </i>
    <i name="e_0_energy">   -283.89499014 </i>
   </energy>
  </scstep>
  <scstep>
   <time name="dav">   75.28   76.11</time>
   <time name="total">   76.07   76.90</time>
   <energy>
    <i name="e_fr_energy">   -283.89496385 </i>
    <i name="e_wo_entrp">   -283.89496385 </i>
    <i name="e_0_energy">   -283.89496385 </i>
   </energy>
  </scstep>
  <scstep>
   <time name="dav">   66.58   67.41</time>
   <time name="total">   67.37   68.20</time>
   <energy>
    <i name="e_fr_energy">   -283.89494516 </i>
    <i name="e_wo_entrp">   -283.89494516 </i>
    <i name="e_0_energy">   -283.89494516 </i>
   </energy>
  </scstep>
  <scstep>
   <time name="dav">   84.25   85.03</time>
   <time name="total">   85.04   85.82</time>
   <energy>
    <i name="e_fr_energy">   -283.89494534 </i>
    <i name="e_wo_entrp">   -283.89494534 </i>
    <i name="e_0_energy">   -283.89494534 </i>
   </energy>
  </scstep>
  <scstep>
   <time name="dav">   58.04   58.69</time>
   <time name="total">   58.82   59.48</time>
   <energy>
    <i name="e_fr_energy">   -283.89494680 </i>
    <i name="e_wo_entrp">   -283.89494680 </i>
    <i name="e_0_energy">   -283.89494680 </i>
   </energy>
  </scstep>
  <scstep>
   <time name="dav">   58.79   59.61</time>
   <time name="total">   58.86   59.68</time>
   <energy>
    <i name="alphaZ">   1061.73246091 </i>
    <i name="ewald"> -30239.62423817 </i>
    <i name="hartreedc"> -12903.89736653 </i>
    <i name="XCdc">   1200.34709568 </i>
    <i name="pawpsdc">  43818.02101500 </i>
    <i name="pawaedc"> -43048.76162711 </i>
    <i name="eentropy">      0.00000000 </i>
    <i name="bandstr">  -3815.23023712 </i>
    <i name="atom">  43643.51795008 </i>
    <i name="e_fr_energy">   -283.89494727 </i>
    <i name="e_wo_entrp">   -283.89494727 </i>
    <i name="e_0_energy">   -283.89494727 </i>
   </energy>
  </scstep>
  <structure>
   <crystal>
    <varray name="basis" >
     <v>      11.16513107      -0.00267083      -0.01981315 </v>
     <v>      -0.00228762       9.52067386      -0.00149273 </v>
     <v>      -0.01982006      -0.00174339      11.17906711 </v>
    </varray>
    <i name="volume">   1188.32620671 </i>
    <varray name="rec_basis" >
     <v>       0.08956484       0.00002155       0.00015880 </v>
     <v>       0.00002515       0.10503459       0.00001642 </v>
     <v>       0.00015874       0.00001406       0.08945319 </v>
    </varray>
   </crystal>
   <varray name="positions" >
    <v>       0.12950135       0.00020013       0.19158764 </v>
    <v>       0.62050607       0.99931396       0.43633853 </v>
    <v>       0.61963013       0.99939730       0.18622998 </v>
    <v>       0.12578110       0.99953288       0.68219236 </v>
    <v>       0.87949533       0.00065349       0.44397666 </v>
    <v>       0.87387544      -0.00115836       0.18843149 </v>
    <v>       0.12790089       0.99894437       0.93522456 </v>
    <v>       0.38201367       0.00064298       0.93735713 </v>
    <v>       0.86848485      -0.00019438       0.92996208 </v>
    <v>       0.62239709       0.00079207       0.68850655 </v>
    <v>       0.00169410       0.30839889       0.06381859 </v>
    <v>       0.25230913       0.69963971       0.06534906 </v>
    <v>       0.25158927       0.28403433       0.31467256 </v>
    <v>       0.49746680       0.71275717       0.31373733 </v>
    <v>       0.49941406       0.29117249       0.06404506 </v>
    <v>       0.74710207       0.69952165       0.06256072 </v>
    <v>       0.74739013       0.30452785       0.31389911 </v>
    <v>       0.00315817       0.69948015       0.31509720 </v>
    <v>       0.00211403       0.29137424       0.56246823 </v>
    <v>       0.25134172       0.71594874       0.56128462 </v>
    <v>       0.25150385       0.30032978       0.80982670 </v>
    <v>       0.49917058       0.70497434       0.81170157 </v>
    <v>       0.49744651       0.29126509       0.56162328 </v>
    <v>       0.74942668       0.70030535       0.56303097 </v>
    <v>       0.74861756       0.29520493       0.81175551 </v>
    <v>       0.00036798       0.69955478       0.80984244 </v>
    <v>       0.24820306       0.32695484       0.06098045 </v>
    <v>      -0.00059190       0.67390620       0.06246993 </v>
    <v>       0.50240536       0.32760485       0.31234114 </v>
    <v>       0.24813338       0.67254853       0.31075316 </v>
    <v>       0.75196629       0.32626591       0.06320701 </v>
    <v>       0.50050374       0.67269789       0.06186377 </v>
    <v>       0.99763988       0.32667975       0.31111193 </v>
    <v>       0.75167463       0.67307939       0.31217066 </v>
    <v>       0.24940260       0.32766441       0.56474922 </v>
    <v>      -0.00185135       0.67281781       0.56295618 </v>
    <v>       0.50017353       0.32735755       0.81324294 </v>
    <v>       0.24885057       0.67294081       0.81498595 </v>
    <v>       0.75044048       0.32728272       0.56251349 </v>
    <v>       0.50230032       0.67246077       0.56405024 </v>
    <v>       0.99986097       0.32646454       0.81482564 </v>
    <v>       0.75081732       0.67334213       0.81350686 </v>
    <v>       0.49841842       0.08168334       0.06019307 </v>
    <v>       0.24605847       0.92646464       0.05605357 </v>
    <v>       0.24708910       0.08716150       0.30943341 </v>
    <v>      -0.00687845       0.92689954       0.30862955 </v>
    <v>       0.99774392       0.06750807       0.06057509 </v>
    <v>       0.75724154       0.92725635       0.06476378 </v>
    <v>       0.75475833       0.07067145       0.31171317 </v>
    <v>       0.50574943       0.91564533       0.31205731 </v>
    <v>       0.50697709       0.08104952       0.56459954 </v>
    <v>       0.24752532       0.91252362       0.56521683 </v>
    <v>       0.24706702       0.07386410       0.81918582 </v>
    <v>       0.00192820       0.92690834       0.81983830 </v>
    <v>       0.99691574       0.08140408       0.56055636 </v>
    <v>       0.74839389       0.92498136       0.55958907 </v>
    <v>       0.75116320       0.07827843       0.81330117 </v>
    <v>       0.50022136       0.92073832       0.81290545 </v>
   </varray>
  </structure>
  <varray name="forces" >
   <v>       0.80776192       0.03760446       0.76630985 </v>
   <v>      -0.76968883      -0.06368403      -0.16206980 </v>
   <v>      -0.78328046      -0.06397789      -0.14037522 </v>
   <v>       0.24508274      -0.04314501      -0.80711793 </v>
   <v>       0.36560799      -0.06157349       0.77692389 </v>
   <v>       0.08800934      -0.02524704      -0.03060365 </v>
   <v>      -0.17228299      -0.04660851       0.13672283 </v>
   <v>       0.76776025       0.01480509       0.02431654 </v>
   <v>      -0.68411429      -0.13983649      -0.64336865 </v>
   <v>      -0.11820909       0.03335768       0.36932796 </v>
   <v>       0.22327034       0.25528029       0.13858629 </v>
   <v>       0.13652786       0.07231814       0.27998907 </v>
   <v>       0.27892241       2.07445192       0.30406262 </v>
   <v>      -0.36853708      -1.16053323       0.18064882 </v>
   <v>      -0.08763890       0.70833686       0.22777225 </v>
   <v>      -0.26965992       0.13178821       0.06510445 </v>
   <v>      -0.26124432       0.13541506       0.12983645 </v>
   <v>       0.37742049       0.10492848       0.16692998 </v>
   <v>       0.27645801       0.64131774      -0.04116217 </v>
   <v>       0.30868683      -2.20238669      -0.24697594 </v>
   <v>       0.17399083       0.00966711      -0.36028004 </v>
   <v>      -0.17674103      -0.47717108      -0.23381250 </v>
   <v>      -0.42780133       0.46012233      -0.19295210 </v>
   <v>      -0.16535288      -0.13492498      -0.07738673 </v>
   <v>      -0.11085342       0.34168355      -0.13219324 </v>
   <v>       0.15688515       0.09878406      -0.26363870 </v>
   <v>      -0.24584971       0.20586630      -0.28575325 </v>
   <v>      -0.08658217      -0.24105654      -0.04921142 </v>
   <v>       0.45445364       0.11670794      -0.07960953 </v>
   <v>      -0.32689629      -0.07174731      -0.38941392 </v>
   <v>       0.22970416       0.06822783       0.02120396 </v>
   <v>       0.06778249      -0.05869057      -0.15592398 </v>
   <v>      -0.33189580       0.16417218      -0.22874436 </v>
   <v>       0.22612528      -0.26559852      -0.12665262 </v>
   <v>      -0.12176772       0.09317671       0.38341322 </v>
   <v>      -0.29785318      -0.06089267       0.00621473 </v>
   <v>       0.04864289       0.08771772       0.02494698 </v>
   <v>      -0.17956846      -0.20086142       0.33237764 </v>
   <v>       0.03805610       0.18913074      -0.02380990 </v>
   <v>       0.44294695      -0.13670741       0.23375611 </v>
   <v>      -0.02662123       0.09132379       0.24969675 </v>
   <v>       0.11582776       0.02610076       0.10251187 </v>
   <v>      -0.21163146      -0.62786101      -0.35555098 </v>
   <v>      -0.22151448      -0.44560224      -0.97367558 </v>
   <v>      -0.67303816      -2.53415425      -0.69532130 </v>
   <v>      -0.96160041      -0.46644061      -0.28593533 </v>
   <v>      -0.35209148       0.41836068      -0.39122275 </v>
   <v>       0.88549270      -0.47156094       0.24980454 </v>
   <v>       0.56385055       0.42020657       0.15523724 </v>
   <v>       1.19968695       1.47138464      -0.10384509 </v>
   <v>       1.40041834      -0.53567093       0.37901230 </v>
   <v>      -0.63436041       2.63672212       0.67256687 </v>
   <v>      -0.16951764       0.42728551       0.93511743 </v>
   <v>       0.26501273      -0.46748914       0.89982803 </v>
   <v>      -0.27323703      -0.48023919      -0.13858036 </v>
   <v>      -0.47375704      -0.22054761      -0.35813160 </v>
   <v>      -0.27956624       0.00659750      -0.26147182 </v>
   <v>       0.11836878       0.16136682       0.02257180 </v>
  </varray>
  <varray name="stress" >
   <v>       6.05447498       0.27771838       2.08440465 </v>
   <v>       0.27771820       8.39127511       0.36667558 </v>
   <v>       2.08440460       0.36667557       5.29184873 </v>
  </varray>
  <energy>
   <i name="e_fr_energy">   -295.64485095 </i>
   <i name="e_wo_entrp">   -295.64485095 </i>
   <i name="e_0_energy">      0.00000000 </i>
  </energy>
  <time name="totalsc">  898.99  908.38</time>
 </calculation>
 <calculation>
  <scstep>
   <time name="dav">   67.86   68.60</time>
   <time name="total">   68.64   69.39</time>
   <energy>
    <i name="alphaZ">   1052.22630424 </i>
    <i name="ewald"> -30266.62410656 </i>
    <i name="hartreedc"> -12755.32504533 </i>
    <i name="XCdc">   1194.56892241 </i>
    <i name="pawpsdc">  43818.25129162 </i>
    <i name="pawaedc"> -43048.99128708 </i>
    <i name="eentropy">      0.00000000 </i>
    <i name="bandstr">  -3920.58488112 </i>
    <i name="atom">  43643.51795008 </i>
    <i name="e_fr_energy">   -282.96085175 </i>
    <i name="e_wo_entrp">   -282.96085175 </i>
    <i name="e_0_energy">   -282.96085175 </i>
   </energy>
  </scstep>
  <scstep>
   <time name="dav">   68.52   69.32</time>
   <time name="total">   69.30   70.11</time>
   <energy>
    <i name="e_fr_energy">   -284.99705105 </i>
    <i name="e_wo_entrp">   -284.99705105 </i>
    <i name="e_0_energy">   -284.99705105 </i>
   </energy>
  </scstep>
  <scstep>
   <time name="dav">   79.57   80.69</time>
   <time name="total">   80.35   81.48</time>
   <energy>
    <i name="e_fr_energy">   -284.95459794 </i>
    <i name="e_wo_entrp">   -284.95459794 </i>
    <i name="e_0_energy">   -284.95459794 </i>
   </energy>
  </scstep>
  <scstep>
   <time name="dav">   78.71   79.13</time>
   <time name="total">   79.50   79.92</time>
   <energy>
    <i name="e_fr_energy">   -284.91756771 </i>
    <i name="e_wo_entrp">   -284.91756771 </i>
    <i name="e_0_energy">   -284.91756771 </i>
   </energy>
  </scstep>
  <scstep>
   <time name="dav">   75.66   76.37</time>
   <time name="total">   76.44   77.16</time>
   <energy>
    <i name="e_fr_energy">   -284.89210144 </i>
    <i name="e_wo_entrp">   -284.89210144 </i>
    <i name="e_0_energy">   -284.89210144 </i>
   </energy>
  </scstep>
  <scstep>
   <time name="dav">   76.16   76.34</time>
   <time name="total">   76.95   77.13</time>
   <energy>
    <i name="e_fr_energy">   -284.88761766 </i>
    <i name="e_wo_entrp">   -284.88761766 </i>
    <i name="e_0_energy">   -284.88761766 </i>
   </energy>
  </scstep>
  <scstep>
   <time name="dav">   70.98   71.03</time>
   <time name="total">   71.76   71.82</time>
   <energy>
    <i name="e_fr_energy">   -284.88796274 </i>
    <i name="e_wo_entrp">   -284.88796274 </i>
    <i name="e_0_energy">   -284.88796274 </i>
   </energy>
  </scstep>
  <scstep>
   <time name="dav">   81.32   81.46</time>
   <time name="total">   82.10   82.25</time>
   <energy>
    <i name="e_fr_energy">   -284.88783654 </i>
    <i name="e_wo_entrp">   -284.88783654 </i>
    <i name="e_0_energy">   -284.88783654 </i>
   </energy>
  </scstep>
  <scstep>
   <time name="dav">   76.95   77.13</time>
   <time name="total">   77.74   77.92</time>
   <energy>
    <i name="e_fr_energy">   -284.88777273 </i>
    <i name="e_wo_entrp">   -284.88777273 </i>
    <i name="e_0_energy">   -284.88777273 </i>
   </energy>
  </scstep>
  <scstep>
   <time name="dav">   80.79   80.86</time>
   <time name="total">   81.58   81.65</time>
   <energy>
    <i name="e_fr_energy">   -284.88777075 </i>
    <i name="e_wo_entrp">   -284.88777075 </i>
    <i name="e_0_energy">   -284.88777075 </i>
   </energy>
  </scstep>
  <scstep>
   <time name="dav">   73.36   73.47</time>
   <time name="total">   74.14   74.26</time>
   <energy>
    <i name="e_fr_energy">   -284.88777114 </i>
    <i name="e_wo_entrp">   -284.88777114 </i>
    <i name="e_0_energy">   -284.88777114 </i>
   </energy>
  </scstep>
  <scstep>
   <time name="dav">   64.72   65.50</time>
   <time name="total">   65.51   66.29</time>
   <energy>
    <i name="e_fr_energy">   -284.88777270 </i>
    <i name="e_wo_entrp">   -284.88777270 </i>
    <i name="e_0_energy">   -284.88777270 </i>
   </energy>
  </scstep>
  <scstep>
   <time name="dav">   60.12   60.82</time>
   <time name="total">   60.91   61.61</time>
   <energy>
    <i name="e_fr_energy">   -284.88777563 </i>
    <i name="e_wo_entrp">   -284.88777563 </i>
    <i name="e_0_energy">   -284.88777563 </i>
   </energy>
  </scstep>
  <scstep>
   <time name="dav">   49.62   49.78</time>
   <time name="total">   49.69   49.85</time>
   <energy>
    <i name="alphaZ">   1052.22630424 </i>
    <i name="ewald"> -30266.62410656 </i>
    <i name="hartreedc"> -12834.59107613 </i>
    <i name="XCdc">   1198.24338065 </i>
    <i name="pawpsdc">  43454.05526073 </i>
    <i name="pawaedc"> -42679.41503115 </i>
    <i name="eentropy">      0.00000000 </i>
    <i name="bandstr">  -3852.30045836 </i>
    <i name="atom">  43643.51795008 </i>
    <i name="e_fr_energy">   -284.88777649 </i>
    <i name="e_wo_entrp">   -284.88777649 </i>
    <i name="e_0_energy">   -284.88777649 </i>
   </energy>
  </scstep>
  <structure>
   <crystal>
    <varray name="basis" >
     <v>      11.20031680      -0.00187516      -0.01373096 </v>
     <v>      -0.00160811       9.54738907       0.00000659 </v>
     <v>      -0.01373197       0.00001759      11.21314280 </v>
    </varray>
    <i name="volume">   1199.06193442 </i>
    <varray name="rec_basis" >
     <v>       0.08928333       0.00001504       0.00010934 </v>
     <v>       0.00001754       0.10474068      -0.00000014 </v>
     <v>       0.00010933      -0.00000004       0.08918120 </v>
    </varray>
   </crystal>
   <varray name="positions" >
    <v>       0.13482257       0.00053015       0.19666114 </v>
    <v>       0.61535532       0.99879097       0.43544119 </v>
    <v>       0.61438470       0.99890584       0.18538056 </v>
    <v>       0.12725937       0.99919865       0.67697674 </v>
    <v>       0.88265603       0.00054451       0.45003039 </v>
    <v>       0.87395591      -0.00180828       0.18891760 </v>
    <v>       0.12816722       0.99836079       0.93515027 </v>
    <v>       0.38784037       0.00090486       0.93766187 </v>
    <v>       0.86288771      -0.00102873       0.92454069 </v>
    <v>       0.62103446       0.00133296       0.69069354 </v>
    <v>       0.00324918       0.31488414       0.06479941 </v>
    <v>       0.25374326       0.69794888       0.06752239 </v>
    <v>       0.25344008       0.28981342       0.31667819 </v>
    <v>       0.49497765       0.71019967       0.31484929 </v>
    <v>       0.49876789       0.29306308       0.06548323 </v>
    <v>       0.74477941       0.69807476       0.06273034 </v>
    <v>       0.74532162       0.30889018       0.31486372 </v>
    <v>       0.00603754       0.69788673       0.31669703 </v>
    <v>       0.00405364       0.29301578       0.56216540 </v>
    <v>       0.25310831       0.70953535       0.55965339 </v>
    <v>       0.25287176       0.30241223       0.80714419 </v>
    <v>       0.49815130       0.70269372       0.81028075 </v>
    <v>       0.49459451       0.29197126       0.56034343 </v>
    <v>       0.74845577       0.69785832       0.56279179 </v>
    <v>       0.74765822       0.29688959       0.81078179 </v>
    <v>       0.00121667       0.69795928       0.80756893 </v>
    <v>       0.24644191       0.32803886       0.05904178 </v>
    <v>      -0.00120841       0.67298897       0.06210921 </v>
    <v>       0.50527601       0.32850973       0.31180939 </v>
    <v>       0.24604319       0.67192498       0.30829037 </v>
    <v>       0.75368407       0.32640221       0.06343561 </v>
    <v>       0.50096438       0.67219869       0.06082004 </v>
    <v>       0.99533618       0.32744984       0.30946252 </v>
    <v>       0.75329966       0.67171478       0.31137232 </v>
    <v>       0.24864196       0.32847670       0.56709589 </v>
    <v>      -0.00384835       0.67235475       0.56301614 </v>
    <v>       0.50046607       0.32802143       0.81349865 </v>
    <v>       0.24766909       0.67183923       0.81721105 </v>
[...]
       <r>    8.5254    0.0000 </r>
       <r>    8.5402    0.0000 </r>
       <r>    8.5953    0.0000 </r>
       <r>    8.6152    0.0000 </r>
       <r>    8.6259    0.0000 </r>
       <r>    8.7798    0.0000 </r>
       <r>    8.8501    0.0000 </r>
       <r>    9.7719    0.0000 </r>
       <r>    9.8991    0.0000 </r>
       <r>   10.1000    0.0000 </r>
       <r>   10.1726    0.0000 </r>
      </set>
     </set>
    </set>
   </array>
  </eigenvalues>
  <separator name="orbital magnetization" >
   <v name="MAGDIPOLOUT">      0.00000000      0.00000000      0.00000000</v>
  </separator>
  <dos>
   <i name="efermi">      4.06418086 </i>
   <total>
    <array>
     <dimension dim="1">gridpoints</dimension>
     <dimension dim="2">spin</dimension>
     <field>energy</field>
     <field>total</field>
     <field>integrated</field>
     <set>
      <set comment="spin 1">
       <r>   -42.6521     0.0000     0.0000 </r>
       <r>   -42.4677     0.0000     0.0000 </r>
       <r>   -42.2832     0.0000     0.0000 </r>
       <r>   -42.0987     0.0000     0.0000 </r>
       <r>   -41.9143     0.0000     0.0000 </r>
       <r>   -41.7298     0.0000     0.0000 </r>
       <r>   -41.5453     0.0000     0.0000 </r>
       <r>   -41.3609     0.0000     0.0000 </r>
       <r>   -41.1764     0.0000     0.0000 </r>
       <r>   -40.9919     0.0000     0.0000 </r>
       <r>   -40.8075     0.0000     0.0000 </r>
       <r>   -40.6230     0.0000     0.0000 </r>
       <r>   -40.4385     0.0000     0.0000 </r>
       <r>   -40.2541     0.0000     0.0000 </r>
       <r>   -40.0696     0.0000     2.0000 </r>
       <r>   -39.8851     0.0000     6.0000 </r>
       <r>   -39.7007     0.0000     6.0000 </r>
       <r>   -39.5162     0.0000     6.0000 </r>
       <r>   -39.3317     0.0000     6.0000 </r>
       <r>   -39.1473     0.0000     6.0000 </r>
       <r>   -38.9628     0.0000     8.0000 </r>
       <r>   -38.7783     0.0000     8.0000 </r>
       <r>   -38.5938     0.0000     8.0000 </r>
       <r>   -38.4094     0.0000     8.0000 </r>
       <r>   -38.2249     0.0000     8.0000 </r>
       <r>   -38.0404     0.0000     8.0000 </r>
       <r>   -37.8560     0.0000     8.0000 </r>
       <r>   -37.6715     0.0000     8.0000 </r>
       <r>   -37.4870     0.0000     8.0000 </r>
       <r>   -37.3026     0.0000     8.0000 </r>
       <r>   -37.1181     0.0000     8.0000 </r>
       <r>   -36.9336     0.0000     8.0000 </r>
       <r>   -36.7492     0.0000     8.0000 </r>
       <r>   -36.5647     0.0000     8.0000 </r>
       <r>   -36.3802     0.0000     8.0000 </r>
       <r>   -36.1958     0.0000     8.0000 </r>
       <r>   -36.0113     0.0000     8.0000 </r>
       <r>   -35.8268     0.0000     8.0000 </r>
       <r>   -35.6424     0.0000     8.0000 </r>
       <r>   -35.4579     0.0000     8.0000 </r>
       <r>   -35.2734     0.0000     8.0000 </r>
       <r>   -35.0890     0.0000     8.0000 </r>
       <r>   -34.9045     0.0000     8.0000 </r>
       <r>   -34.7200     0.0000     8.0000 </r>
       <r>   -34.5356     0.0000     8.0000 </r>
       <r>   -34.3511     0.0000     8.0000 </r>
       <r>   -34.1666     0.0000     8.0000 </r>
       <r>   -33.9822     0.0000     8.0000 </r>
       <r>   -33.7977     0.0000     8.0000 </r>
       <r>   -33.6132     0.0000     8.0000 </r>
       <r>   -33.4288     0.0000     8.0000 </r>
       <r>   -33.2443     0.0000     8.0000 </r>
       <r>   -33.0598     0.0000     8.0000 </r>
       <r>   -32.8754     0.0000     8.0000 </r>
       <r>   -32.6909     0.0000     8.0000 </r>
       <r>   -32.5064     0.0000     8.0000 </r>
       <r>   -32.3220     0.0000     8.0000 </r>
       <r>   -32.1375     0.0000     8.0000 </r>
       <r>   -31.9530     0.0000     8.0000 </r>
       <r>   -31.7686     0.0000     8.0000 </r>
       <r>   -31.5841     0.0000     8.0000 </r>
       <r>   -31.3996     0.0000     8.0000 </r>
       <r>   -31.2152     0.0000     8.0000 </r>
       <r>   -31.0307     0.0000     8.0000 </r>
       <r>   -30.8462     0.0000     8.0000 </r>
       <r>   -30.6618     0.0000     8.0000 </r>
       <r>   -30.4773     0.0000     8.0000 </r>
       <r>   -30.2928     0.0000     8.0000 </r>
       <r>   -30.1084     0.0000     8.0000 </r>
       <r>   -29.9239     0.0000     8.0000 </r>
       <r>   -29.7394     0.0000     8.0000 </r>
       <r>   -29.5550     0.0000     8.0000 </r>
       <r>   -29.3705     0.0000     8.0000 </r>
       <r>   -29.1860     0.0000     8.0000 </r>
       <r>   -29.0016     0.0000     8.0000 </r>
       <r>   -28.8171     0.0000     8.0000 </r>
       <r>   -28.6326     0.0000     8.0000 </r>
       <r>   -28.4482     0.0000     8.0000 </r>
       <r>   -28.2637     0.0000     8.0000 </r>
       <r>   -28.0792     0.0000     8.0000 </r>
       <r>   -27.8948     0.0000     8.0000 </r>
       <r>   -27.7103     0.0000     8.0000 </r>
       <r>   -27.5258     0.0000     8.0000 </r>
       <r>   -27.3414     0.0000     8.0000 </r>
       <r>   -27.1569     0.0000     8.0000 </r>
       <r>   -26.9724     0.0000     8.0000 </r>
       <r>   -26.7880     0.0000     8.0000 </r>
       <r>   -26.6035     0.0000     8.0000 </r>
       <r>   -26.4190     0.0000     8.0000 </r>
       <r>   -26.2345     0.0000     8.0000 </r>
       <r>   -26.0501     0.0000     8.0000 </r>
       <r>   -25.8656     0.0000     8.0000 </r>
       <r>   -25.6811     0.0000     8.0000 </r>
       <r>   -25.4967     0.0000     8.0000 </r>
       <r>   -25.3122     0.0000     8.0000 </r>
       <r>   -25.1277     0.0000     8.0000 </r>
       <r>   -24.9433     0.0000     8.0000 </r>
       <r>   -24.7588     0.0000     8.0000 </r>
       <r>   -24.5743     0.0000     8.0000 </r>
       <r>   -24.3899     0.0000     8.0000 </r>
       <r>   -24.2054     0.0000     8.0000 </r>
       <r>   -24.0209     0.0000     8.0000 </r>
       <r>   -23.8365     0.0000     8.0000 </r>
       <r>   -23.6520     0.0000     8.0000 </r>
       <r>   -23.4675     0.0000     8.0000 </r>
       <r>   -23.2831     0.0000     8.0000 </r>
       <r>   -23.0986     0.0000     8.0000 </r>
       <r>   -22.9141     0.0000     8.0000 </r>
       <r>   -22.7297     0.0000     8.0000 </r>
       <r>   -22.5452     0.0000     8.0000 </r>
       <r>   -22.3607     0.0000     8.0000 </r>
       <r>   -22.1763     0.0000     8.0000 </r>
       <r>   -21.9918     0.0000     8.0000 </r>
       <r>   -21.8073     0.0000     8.0000 </r>
       <r>   -21.6229     0.0000     8.0000 </r>
       <r>   -21.4384     0.0000     8.0000 </r>
       <r>   -21.2539     0.0000     8.0000 </r>
       <r>   -21.0695     0.0000     8.0000 </r>
       <r>   -20.8850     0.0000     8.0000 </r>
       <r>   -20.7005     0.0000     8.0000 </r>
       <r>   -20.5161     0.0000     8.0000 </r>
       <r>   -20.3316     0.0000     8.0000 </r>
       <r>   -20.1471     0.0000     8.0000 </r>
       <r>   -19.9627     0.0000     8.0000 </r>
       <r>   -19.7782     0.0000     8.0000 </r>
       <r>   -19.5937     0.0000     8.0000 </r>
       <r>   -19.4093     0.0000     8.0000 </r>
       <r>   -19.2248     0.0000     8.0000 </r>
       <r>   -19.0403     0.0000    16.0000 </r>
       <r>   -18.8559     0.0000    66.0000 </r>
       <r>   -18.6714     0.0000   134.0000 </r>
       <r>   -18.4869     0.0000   156.0000 </r>
       <r>   -18.3025     0.0000   164.0000 </r>
       <r>   -18.1180     0.0000   168.0000 </r>
       <r>   -17.9335     0.0000   168.0000 </r>
       <r>   -17.7491     0.0000   168.0000 </r>
       <r>   -17.5646     0.0000   168.0000 </r>
       <r>   -17.3801     0.0000   168.0000 </r>
       <r>   -17.1957     0.0000   168.0000 </r>
       <r>   -17.0112     0.0000   168.0000 </r>
       <r>   -16.8267     0.0000   168.0000 </r>
       <r>   -16.6423     0.0000   168.0000 </r>
       <r>   -16.4578     0.0000   168.0000 </r>
       <r>   -16.2733     0.0000   168.0000 </r>
       <r>   -16.0889     0.0000   168.0000 </r>
       <r>   -15.9044     0.0000   168.0000 </r>
       <r>   -15.7199     0.0000   168.0000 </r>
       <r>   -15.5355     0.0000   168.0000 </r>
       <r>   -15.3510     0.0000   168.0000 </r>
       <r>   -15.1665     0.0000   168.0000 </r>
       <r>   -14.9821     0.0000   168.0000 </r>
       <r>   -14.7976     0.0000   168.0000 </r>
       <r>   -14.6131     0.0000   168.0000 </r>
       <r>   -14.4287     0.0000   168.0000 </r>
       <r>   -14.2442     0.0000   168.0000 </r>
       <r>   -14.0597     0.0000   168.0000 </r>
       <r>   -13.8753     0.0000   168.0000 </r>
       <r>   -13.6908     0.0000   168.0000 </r>
       <r>   -13.5063     0.0000   170.0000 </r>
       <r>   -13.3218     0.0000   172.0000 </r>
       <r>   -13.1374     0.0000   180.0000 </r>
       <r>   -12.9529     0.0000   186.0000 </r>
       <r>   -12.7684     0.0000   190.0000 </r>
       <r>   -12.5840     0.0000   196.0000 </r>
       <r>   -12.3995     0.0000   198.0000 </r>
       <r>   -12.2150     0.0000   198.0000 </r>
       <r>   -12.0306     0.0000   200.0000 </r>
       <r>   -11.8461     0.0000   200.0000 </r>
       <r>   -11.6616     0.0000   200.0000 </r>
       <r>   -11.4772     0.0000   200.0000 </r>
       <r>   -11.2927     0.0000   200.0000 </r>
       <r>   -11.1082     0.0000   200.0000 </r>
       <r>   -10.9238     0.0000   200.0000 </r>
       <r>   -10.7393     0.0000   200.0000 </r>
       <r>   -10.5548     0.0000   200.0000 </r>
       <r>   -10.3704     0.0000   200.0000 </r>
       <r>   -10.1859     0.0000   200.0000 </r>
       <r>   -10.0014     0.0000   200.0000 </r>
       <r>    -9.8170     0.0000   200.0000 </r>
       <r>    -9.6325     0.0000   200.0000 </r>
       <r>    -9.4480    12.6893   201.3374 </r>
       <r>    -9.2636    16.5724   202.1939 </r>
       <r>    -9.0791     3.8169   204.1027 </r>
       <r>    -8.8946    20.4217   205.8500 </r>
       <r>    -8.7102    16.8553   208.6467 </r>
       <r>    -8.5257    19.3833   212.9976 </r>
       <r>    -8.3412     0.0690   215.9999 </r>
       <r>    -8.1568    43.3528   220.7145 </r>
       <r>    -7.9723    24.9057   226.3756 </r>
       <r>    -7.7878    20.0378   228.6832 </r>
       <r>    -7.6034     0.9149   231.9969 </r>
       <r>    -7.4189     0.0000   232.0000 </r>
       <r>    -7.2344     0.0000   232.0000 </r>
       <r>    -7.0500     0.0000   232.0000 </r>
       <r>    -6.8655     0.0000   232.0000 </r>
       <r>    -6.6810     0.0000   232.0000 </r>
       <r>    -6.4966     4.4491   232.1430 </r>
       <r>    -6.3121    24.0697   236.3978 </r>
       <r>    -6.1276    21.1650   239.5928 </r>
       <r>    -5.9432    17.3980   242.4884 </r>
       <r>    -5.7587    18.8969   247.8834 </r>
       <r>    -5.5742    18.9732   251.4684 </r>
       <r>    -5.3898    14.5048   254.2525 </r>
       <r>    -5.2053     5.7166   255.9575 </r>
       <r>    -5.0208    13.5280   257.4632 </r>
       <r>    -4.8364     6.9420   259.3700 </r>
       <r>    -4.6519     5.0328   260.6551 </r>
       <r>    -4.4674     9.1762   261.9441 </r>
       <r>    -4.2830     3.9512   263.3242 </r>
       <r>    -4.0985     1.7778   263.8084 </r>
       <r>    -3.9140     0.2597   263.9925 </r>
       <r>    -3.7296     0.0000   264.0000 </r>
       <r>    -3.5451     0.0000   264.0000 </r>
       <r>    -3.3606     0.0000   264.0000 </r>
       <r>    -3.1762     0.0000   264.0000 </r>
       <r>    -2.9917     0.0000   264.0000 </r>
       <r>    -2.8072     0.0000   264.0000 </r>
       <r>    -2.6228     0.0000   264.0000 </r>
       <r>    -2.4383     0.0000   264.0000 </r>
       <r>    -2.2538     0.0000   264.0000 </r>
       <r>    -2.0694     0.0000   264.0000 </r>
       <r>    -1.8849     0.0000   264.0000 </r>
       <r>    -1.7004     0.0000   264.0000 </r>
       <r>    -1.5160     0.4645   264.0052 </r>
       <r>    -1.3315     7.6176   264.9045 </r>
       <r>    -1.1470     7.2452   266.3036 </r>
       <r>    -0.9625    13.5580   268.0788 </r>
       <r>    -0.7781    12.1384   270.6165 </r>
       <r>    -0.5936    24.6128   273.3845 </r>
       <r>    -0.4091    31.2186   278.6879 </r>
       <r>    -0.2247    34.6949   284.8876 </r>
       <r>    -0.0402    40.4198   292.0900 </r>
       <r>     0.1443    31.5314   298.8398 </r>
       <r>     0.3287    49.3649   304.8438 </r>
       <r>     0.5132    47.0602   312.2421 </r>
       <r>     0.6977    36.8193   319.4213 </r>
       <r>     0.8821    68.3254   327.3449 </r>
       <r>     1.0666    47.3970   336.2950 </r>
       <r>     1.2511    42.2890   344.1942 </r>
       <r>     1.4355    48.8862   352.7648 </r>
       <r>     1.6200    44.1913   361.0308 </r>
       <r>     1.8045    39.0558   367.9509 </r>
       <r>     1.9889    50.2478   376.5034 </r>
       <r>     2.1734    58.8815   386.5357 </r>
       <r>     2.3579    57.4566   397.1050 </r>
       <r>     2.5423    59.7202   407.6768 </r>
       <r>     2.7268    62.1356   418.5650 </r>
       <r>     2.9113    44.7390   430.2032 </r>
       <r>     3.0957    40.6185   438.5276 </r>
       <r>     3.2802    38.7930   445.0387 </r>
       <r>     3.4647    19.5301   450.6136 </r>
       <r>     3.6491    13.5094   454.0886 </r>
       <r>     3.8336     4.3365   455.7113 </r>
       <r>     4.0181     0.0000   456.0000 </r>
       <r>     4.2025     0.0000   456.0000 </r>
       <r>     4.3870     0.0000   456.0000 </r>
       <r>     4.5715     0.0000   456.0000 </r>
       <r>     4.7559     0.0000   456.0000 </r>
       <r>     4.9404     0.4334   456.0076 </r>
       <r>     5.1249     4.0780   456.3961 </r>
       <r>     5.3093    10.6898   457.7864 </r>
       <r>     5.4938    10.5340   459.7139 </r>
       <r>     5.6783    19.8582   463.0508 </r>
       <r>     5.8627    16.2986   466.1913 </r>
       <r>     6.0472    13.5262   468.7722 </r>
       <r>     6.2317    14.5527   471.3411 </r>
       <r>     6.4161    16.0680   474.1691 </r>
       <r>     6.6006    17.7274   477.2762 </r>
       <r>     6.7851    21.3904   480.8606 </r>
       <r>     6.9695    21.5157   484.9193 </r>
       <r>     7.1540    29.3717   489.4929 </r>
       <r>     7.3385    29.6158   496.0732 </r>
       <r>     7.5229    35.4656   500.8815 </r>
       <r>     7.7074    28.6563   507.4991 </r>
       <r>     7.8919    31.8276   513.1222 </r>
       <r>     8.0763    27.6525   518.7682 </r>
       <r>     8.2608    30.2882   523.7946 </r>
       <r>     8.4453    35.8245   529.7312 </r>
       <r>     8.6297    36.0507   536.4852 </r>
       <r>     8.8142    27.0317   542.2158 </r>
       <r>     8.9987    18.7941   546.3802 </r>
       <r>     9.1831    11.9520   549.2383 </r>
       <r>     9.3676    13.8943   551.4941 </r>
       <r>     9.5521    13.2595   553.6210 </r>
       <r>     9.7365    11.6405   555.8707 </r>
       <r>     9.9210    11.5699   557.7757 </r>
       <r>    10.1055     6.0658   559.7846 </r>
       <r>    10.2899     0.0000   560.0000 </r>
       <r>    10.4744     0.0000   560.0000 </r>
       <r>    10.6589     0.0000   560.0000 </r>
       <r>    10.8433     0.0000   560.0000 </r>
       <r>    11.0278     0.0000   560.0000 </r>
       <r>    11.2123     0.0000   560.0000 </r>
       <r>    11.3968     0.0000   560.0000 </r>
       <r>    11.5812     0.0000   560.0000 </r>
       <r>    11.7657     0.0000   560.0000 </r>
       <r>    11.9502     0.0000   560.0000 </r>
       <r>    12.1346     0.0000   560.0000 </r>
       <r>    12.3191     0.0000   560.0000 </r>
       <r>    12.5036     0.0000   560.0000 </r>
       <r>    12.6880     0.0000   560.0000 </r>
      </set>
     </set>
    </array>
   </total>
  </dos>
 </calculation>
 <structure name="finalpos" >
  <crystal>
   <varray name="basis" >
    <v>      11.23051881      -0.05508168       0.10220070 </v>
    <v>      -0.04808812       9.64228854       0.04695633 </v>
    <v>       0.10229882       0.05593873      11.23482521 </v>
   </varray>
   <i name="volume">   1216.43505322 </i>
   <varray name="rec_basis" >
    <v>       0.08905268       0.00044808      -0.00081310 </v>
    <v>       0.00051343       0.10371492      -0.00052108 </v>
    <v>      -0.00081224      -0.00043756       0.08901852 </v>
   </varray>
  </crystal>
  <varray name="positions" >
   <v>       0.24690484      -0.02924057       0.20534474 </v>
   <v>       0.51248203       0.01630817       0.43251176 </v>
   <v>       0.59063077      -0.03281454       0.14290643 </v>
   <v>       0.15372434       0.04184433       0.47699425 </v>
   <v>       0.86514051       0.00010564       0.45482305 </v>
   <v>       0.87996812      -0.00148529       0.19221238 </v>
   <v>       0.11847724      -0.00208010       0.94897970 </v>
   <v>       0.38691035      -0.00462508       0.92591213 </v>
   <v>       0.85136104      -0.00664583       0.92875244 </v>
   <v>       0.63315498      -0.00302971       0.69982621 </v>
   <v>      -0.00324006       0.31212972       0.06665051 </v>
   <v>       0.25194452       0.68101561       0.06251809 </v>
   <v>       0.24741736       0.30685870       0.31889216 </v>
   <v>       0.50208834       0.69728408       0.31407615 </v>
   <v>       0.49463262       0.29190810       0.06879418 </v>
   <v>       0.75278881       0.68315247       0.07132802 </v>
   <v>       0.75057657       0.31283697       0.31917850 </v>
   <v>      -0.00065978       0.68657440       0.32306332 </v>
   <v>       0.00077100       0.30740888       0.56147533 </v>
   <v>       0.25350641       0.72848904       0.56371618 </v>
   <v>       0.24850428       0.30898915       0.81617812 </v>
   <v>       0.50000495       0.68899856       0.81213900 </v>
   <v>       0.50193935       0.30478650       0.57028401 </v>
   <v>       0.75099635       0.69386909       0.56812774 </v>
   <v>       0.74717025       0.30750843       0.81505788 </v>
   <v>       0.00142587       0.68918912       0.81898336 </v>
   <v>       0.25134583       0.35414280       0.07018513 </v>
   <v>      -0.00109753       0.63455230       0.06458853 </v>
   <v>       0.50243399       0.27792096       0.32277622 </v>
   <v>       0.24540079       0.72118464       0.30364098 </v>
   <v>       0.75170485       0.34172926       0.06993818 </v>
   <v>       0.50137601       0.66245838       0.06485858 </v>
   <v>       0.00107281       0.36928501       0.32007389 </v>
   <v>       0.74531001       0.63730827       0.31223615 </v>
   <v>       0.25063259       0.32047410       0.57044231 </v>
   <v>       0.00201982       0.66697655       0.56538122 </v>
   <v>       0.50070926       0.34718563       0.82263010 </v>
   <v>       0.24966147       0.65448784       0.81333294 </v>
   <v>       0.75310680       0.35678198       0.57182177 </v>
   <v>       0.50503848       0.65867319       0.56666395 </v>
   <v>      -0.00002099       0.34160377       0.82537066 </v>
   <v>       0.75075940       0.66225818       0.81584401 </v>
   <v>       0.48775961       0.08109008       0.04802053 </v>
   <v>       0.24977292       0.90320533       0.03831193 </v>
   <v>       0.21347010       0.10225815       0.31679506 </v>
   <v>      -0.04814510       0.89549011       0.32312876 </v>
   <v>       0.97767240       0.08358179       0.05057731 </v>
   <v>       0.76900853       0.90632762       0.07535089 </v>
   <v>       0.79188319       0.10225243       0.31633168 </v>
   <v>       0.53079809       0.90337407       0.29826924 </v>
   <v>       0.53759601       0.09785262       0.58294812 </v>
   <v>       0.25719331       0.93230554       0.56271960 </v>
   <v>       0.24811903       0.09967993       0.86297845 </v>
   <v>      -0.00681758       0.89869736       0.86216939 </v>
   <v>       0.99461717       0.10026452       0.53096750 </v>
   <v>       0.74781544       0.91137408       0.57305064 </v>
   <v>       0.74522889       0.08941706       0.81627970 </v>
   <v>       0.50595334       0.90619057       0.81245094 </v>
  </varray>
 </structure>
</modeling>
