<?xml version="1.0" encoding="ISO-8859-1"?>
<modeling>
 <generator>
  <i name="program" type="string">vasp </i>
  <i name="version" type="string">5.3.3  </i>
  <i name="subversion" type="string">18Dez12 (build Nov 19 2020 19:34:37) complex                          parallel </i>
  <i name="platform" type="string">LinuxIFC </i>
  <i name="date" type="string">2021 09 22 </i>
  <i name="time" type="string">11:14:29 </i>
 </generator>
 <incar>
  <i type="string" name="SYSTEM"> La2O2S</i>
  <i type="string" name="PREC">normal</i>
  <i type="int" name="NELMIN">     4</i>
  <i type="int" name="IBRION">     2</i>
  <i type="int" name="NFREE">    10</i>
  <i name="EDIFF">      0.00000100</i>
  <i name="EDIFFG">     -0.01000000</i>
  <i type="int" name="NSW">   200</i>
  <i type="int" name="ISIF">     3</i>
  <i name="ENCUT">    600.00000000</i>
  <i name="ENAUG">    900.00000000</i>
  <i type="int" name="ISMEAR">    -5</i>
  <i type="logical" name="LWAVE"> F  </i>
  <i type="logical" name="LCHARG"> F  </i>
 </incar>
 <kpoints>
  <generation param="Gamma">
   <v type="int" name="divisions">       2        2        2 </v>
   <v name="usershift">      0.00000000       0.00000000       0.00000000 </v>
   <v name="genvec1">      0.50000000       0.00000000       0.00000000 </v>
   <v name="genvec2">      0.00000000       0.50000000       0.00000000 </v>
   <v name="genvec3">      0.00000000       0.00000000       0.50000000 </v>
   <v name="shift">      0.00000000       0.00000000       0.00000000 </v>
  </generation>
  <varray name="kpointlist" >
   <v>       0.00000000       0.00000000       0.00000000 </v>
   <v>       0.50000000       0.00000000       0.00000000 </v>
   <v>       0.00000000       0.50000000       0.00000000 </v>
   <v>       0.50000000       0.50000000       0.00000000 </v>
   <v>       0.00000000       0.00000000       0.50000000 </v>
   <v>       0.50000000       0.00000000       0.50000000 </v>
   <v>       0.00000000       0.50000000       0.50000000 </v>
   <v>       0.50000000       0.50000000       0.50000000 </v>
  </varray>
  <varray name="weights" >
   <v>       0.12500000 </v>
   <v>       0.12500000 </v>
   <v>       0.12500000 </v>
   <v>       0.12500000 </v>
   <v>       0.12500000 </v>
   <v>       0.12500000 </v>
   <v>       0.12500000 </v>
   <v>       0.12500000 </v>
  </varray>
  <varray name="tetrahedronlist"  type="int" >
   <v type="int" >        2        1        2        4        5 </v>
   <v type="int" >        2        1        3        4        5 </v>
   <v type="int" >        2        3        4        5        7 </v>
   <v type="int" >        2        2        4        5        6 </v>
   <v type="int" >        2        4        5        6        8 </v>
   <v type="int" >        2        4        5        7        8 </v>
   <v type="int" >        2        1        2        3        6 </v>
   <v type="int" >        2        2        3        4        6 </v>
   <v type="int" >        2        3        4        6        8 </v>
   <v type="int" >        2        1        3        5        6 </v>
   <v type="int" >        2        3        5        6        7 </v>
   <v type="int" >        2        3        6        7        8 </v>
   <v type="int" >        2        2        3        4        7 </v>
   <v type="int" >        2        1        2        3        7 </v>
   <v type="int" >        2        1        2        5        7 </v>
   <v type="int" >        2        2        4        7        8 </v>
   <v type="int" >        2        2        6        7        8 </v>
   <v type="int" >        2        2        5        6        7 </v>
   <v type="int" >        2        1        3        4        8 </v>
   <v type="int" >        2        1        2        4        8 </v>
   <v type="int" >        2        1        2        6        8 </v>
   <v type="int" >        2        1        3        7        8 </v>
   <v type="int" >        2        1        5        7        8 </v>
   <v type="int" >        2        1        5        6        8 </v>
  </varray>
  <i name="volumeweight">      0.02083333 </i>
 </kpoints>
 <parameters>
  <separator name="general" >
   <i type="string" name="SYSTEM">La2O2S</i>
   <i type="logical" name="LCOMPAT"> F  </i>
  </separator>
  <separator name="electronic" >
   <i type="string" name="PREC">normal</i>
   <i name="ENMAX">    600.00000000</i>
   <i name="ENAUG">    900.00000000</i>
   <i name="EDIFF">      0.00000100</i>
   <i type="int" name="IALGO">    38</i>
   <i type="int" name="IWAVPR">    11</i>
   <i type="int" name="NBANDS">   280</i>
   <i name="NELECT">    464.00000000</i>
   <i type="int" name="TURBO">     0</i>
   <i type="int" name="IRESTART">     0</i>
   <i type="int" name="NREBOOT">     0</i>
   <i type="int" name="NMIN">     0</i>
   <i name="EREF">      0.00000000</i>
   <separator name="electronic smearing" >
    <i type="int" name="ISMEAR">    -5</i>
    <i name="SIGMA">      0.20000000</i>
    <i name="KSPACING">      0.50000000</i>
    <i type="logical" name="KGAMMA"> T  </i>
   </separator>
   <separator name="electronic projectors" >
    <i type="logical" name="LREAL"> F  </i>
    <v name="ROPT">      0.00000000      0.00000000      0.00000000      0.00000000      0.00000000</v>
    <i type="int" name="LMAXPAW">  -100</i>
    <i type="int" name="LMAXMIX">     2</i>
    <i type="logical" name="NLSPLINE"> F  </i>
   </separator>
   <separator name="electronic startup" >
    <i type="int" name="ISTART">     0</i>
    <i type="int" name="ICHARG">     2</i>
    <i type="int" name="INIWAV">     1</i>
   </separator>
   <separator name="electronic spin" >
    <i type="int" name="ISPIN">     1</i>
    <i type="logical" name="LNONCOLLINEAR"> F  </i>
    <v name="MAGMOM">      1.00000000      1.00000000      1.00000000      1.00000000      1.00000000      1.00000000      1.00000000      1.00000000      1.00000000      1.00000000      1.00000000      1.00000000      1.00000000      1.00000000      1.00000000      1.00000000      1.00000000      1.00000000      1.00000000      1.00000000
      1.00000000      1.00000000      1.00000000      1.00000000      1.00000000      1.00000000      1.00000000      1.00000000      1.00000000      1.00000000      1.00000000      1.00000000      1.00000000      1.00000000      1.00000000      1.00000000      1.00000000      1.00000000      1.00000000      1.00000000
      1.00000000      1.00000000      1.00000000      1.00000000      1.00000000      1.00000000      1.00000000      1.00000000      1.00000000      1.00000000      1.00000000      1.00000000      1.00000000      1.00000000      1.00000000      1.00000000      1.00000000      1.00000000      1.00000000      1.00000000
</v>
    <i name="NUPDOWN">     -1.00000000</i>
    <i type="logical" name="LSORBIT"> F  </i>
    <v name="SAXIS">      0.00000000      0.00000000      1.00000000</v>
    <i type="logical" name="LSPIRAL"> F  </i>
    <v name="QSPIRAL">      0.00000000      0.00000000      0.00000000</v>
    <i type="logical" name="LZEROZ"> F  </i>
   </separator>
   <separator name="electronic exchange-correlation" >
    <i type="logical" name="LASPH"> F  </i>
    <i type="logical" name="LMETAGGA"> F  </i>
   </separator>
   <separator name="electronic convergence" >
    <i type="int" name="NELM">    60</i>
    <i type="int" name="NELMDL">    -5</i>
    <i type="int" name="NELMIN">     4</i>
    <i name="ENINI">    600.00000000</i>
    <separator name="electronic convergence detail" >
     <i type="logical" name="LDIAG"> T  </i>
     <i type="logical" name="LSUBROT"> T  </i>
     <i name="WEIMIN">      0.00100000</i>
     <i name="EBREAK">      0.00000000</i>
     <i name="DEPER">      0.30000000</i>
     <i type="int" name="NRMM">     4</i>
     <i name="TIME">      0.40000000</i>
    </separator>
   </separator>
   <separator name="electronic mixer" >
    <i name="AMIX">      0.40000000</i>
    <i name="BMIX">      1.00000000</i>
    <i name="AMIN">      0.10000000</i>
    <i name="AMIX_MAG">      1.60000000</i>
    <i name="BMIX_MAG">      1.00000000</i>
    <separator name="electronic mixer details" >
     <i type="int" name="IMIX">     4</i>
     <i type="int" name="MAXMIX">   -45</i>
     <i name="WC">    100.00000000</i>
     <i type="int" name="INIMIX">     1</i>
     <i type="int" name="MIXPRE">     1</i>
     <i type="int" name="MREMOVE">     5</i>
    </separator>
   </separator>
   <separator name="electronic dipolcorrection" >
    <i type="logical" name="LDIPOL"> F  </i>
    <i type="logical" name="LMONO"> F  </i>
    <i type="int" name="IDIPOL">     0</i>
    <i name="EPSILON">      1.00000000</i>
    <v name="DIPOL">   -100.00000000   -100.00000000   -100.00000000</v>
    <i name="EFIELD">      0.00000000</i>
   </separator>
  </separator>
  <separator name="grids" >
   <i type="int" name="NGX">    70</i>
   <i type="int" name="NGY">    60</i>
   <i type="int" name="NGZ">    70</i>
   <i type="int" name="NGXF">   140</i>
   <i type="int" name="NGYF">   120</i>
   <i type="int" name="NGZF">   140</i>
   <i type="logical" name="ADDGRID"> F  </i>
  </separator>
  <separator name="ionic" >
   <i type="int" name="NSW">   200</i>
   <i type="int" name="IBRION">     2</i>
   <i type="int" name="ISIF">     3</i>
   <i name="PSTRESS">      0.00000000</i>
   <i name="EDIFFG">     -0.01000000</i>
   <i type="int" name="NFREE">    10</i>
   <i name="POTIM">      0.50000000</i>
   <i name="SMASS">     -3.00000000</i>
   <i name="SCALEE">      1.00000000</i>
  </separator>
  <separator name="ionic md" >
   <i name="TEBEG">      0.00010000</i>
   <i name="TEEND">      0.00010000</i>
   <i type="int" name="NBLOCK">     1</i>
   <i type="int" name="KBLOCK">   200</i>
   <i type="int" name="NPACO">   256</i>
   <i name="APACO">     16.00000000</i>
  </separator>
  <separator name="symmetry" >
   <i type="int" name="ISYM">     2</i>
   <i name="SYMPREC">      0.00001000</i>
  </separator>
  <separator name="dos" >
   <i type="logical" name="LORBIT"> F  </i>
   <v name="RWIGS">     -1.00000000     -1.00000000     -1.00000000     -1.00000000     -1.00000000</v>
   <i type="int" name="NEDOS">   301</i>
   <i name="EMIN">     10.00000000</i>
   <i name="EMAX">    -10.00000000</i>
   <i name="EFERMI">      0.00000000</i>
  </separator>
  <separator name="writing" >
   <i type="int" name="NWRITE">     2</i>
   <i type="logical" name="LWAVE"> F  </i>
   <i type="logical" name="LCHARG"> F  </i>
   <i type="logical" name="LPARD"> F  </i>
   <i type="logical" name="LVTOT"> F  </i>
   <i type="logical" name="LVHAR"> F  </i>
   <i type="logical" name="LELF"> F  </i>
   <i type="logical" name="LOPTICS"> F  </i>
   <v name="STM">      0.00000000      0.00000000      0.00000000      0.00000000      0.00000000      0.00000000      0.00000000</v>
  </separator>
  <separator name="performance" >
   <i type="int" name="NPAR">    40</i>
   <i type="int" name="NSIM">     4</i>
   <i type="int" name="NBLK">    -1</i>
   <i type="logical" name="LPLANE"> T  </i>
   <i type="logical" name="LSCALAPACK"> F  </i>
   <i type="logical" name="LSCAAWARE"> F  </i>
   <i type="logical" name="LSCALU"> F  </i>
   <i type="logical" name="LASYNC"> F  </i>
   <i type="logical" name="LORBITALREAL"> F  </i>
  </separator>
  <separator name="miscellaneous" >
   <i type="int" name="IDIOT">     3</i>
   <i type="logical" name="LMUSIC"> F  </i>
   <v name="POMASS">      7.01000000     24.30500000    208.98000000     32.06600000     16.00000000</v>
   <v name="DARWINR">      0.00000000      0.00000000      0.00000000      0.00000000      0.00000000</v>
   <v name="DARWINV">      1.00000000      1.00000000      1.00000000      1.00000000      1.00000000</v>
   <i type="logical" name="LCORR"> T  </i>
  </separator>
  <i type="logical" name="GGA_COMPAT"> T  </i>
  <i type="logical" name="LBERRY"> F  </i>
  <i type="int" name="ICORELEVEL">     0</i>
  <i type="logical" name="LDAU"> F  </i>
  <i type="int" name="I_CONSTRAINED_M">     0</i>
  <separator name="electronic exchange-correlation" >
   <i type="string" name="GGA">--</i>
   <i type="int" name="VOSKOWN">     0</i>
   <i type="logical" name="LHFCALC"> F  </i>
   <i type="string" name="PRECFOCK"></i>
   <i type="logical" name="LSYMGRAD"> F  </i>
   <i type="logical" name="LHFONE"> F  </i>
   <i type="logical" name="LRHFCALC"> F  </i>
   <i type="logical" name="LTHOMAS"> F  </i>
   <i type="logical" name="LMODELHF"> F  </i>
   <i name="ENCUT4O">     -1.00000000</i>
   <i type="int" name="EXXOEP">     0</i>
   <i type="int" name="FOURORBIT">     0</i>
   <i name="AEXX">      0.00000000</i>
   <i name="HFALPHA">      0.00000000</i>
   <i name="MCALPHA">      0.00000000</i>
   <i name="ALDAX">      1.00000000</i>
   <i name="AGGAX">      1.00000000</i>
   <i name="ALDAC">      1.00000000</i>
   <i name="AGGAC">      1.00000000</i>
   <i type="int" name="NKREDX">     1</i>
   <i type="int" name="NKREDY">     1</i>
   <i type="int" name="NKREDZ">     1</i>
   <i type="logical" name="SHIFTRED"> F  </i>
   <i type="logical" name="ODDONLY"> F  </i>
   <i type="logical" name="EVENONLY"> F  </i>
   <i type="int" name="LMAXFOCK">     0</i>
   <i type="int" name="NMAXFOCKAE">     0</i>
   <i type="logical" name="LFOCKAEDFT"> F  </i>
   <i name="HFSCREEN">      0.00000000</i>
   <i name="HFSCREENC">      0.00000000</i>
   <i type="int" name="NBANDSGWLOW">     0</i>
  </separator>
  <separator name="vdW DFT" >
   <i type="logical" name="LUSE_VDW"> F  </i>
   <i name="Zab_VDW">     -0.84910000</i>
   <i name="PARAM1">      0.12340000</i>
   <i name="PARAM2">      1.00000000</i>
   <i name="PARAM3">      0.00000000</i>
  </separator>
  <separator name="model GW" >
   <i type="int" name="MODEL_GW">     0</i>
   <i name="MODEL_EPS0">     11.96848538</i>
   <i name="MODEL_ALPHA">      1.00000000</i>
  </separator>
  <separator name="linear response parameters" >
   <i type="logical" name="LEPSILON"> F  </i>
   <i type="logical" name="LRPA"> F  </i>
   <i type="logical" name="LNABLA"> F  </i>
   <i type="logical" name="LVEL"> F  </i>
   <i type="int" name="KINTER">     0</i>
   <i name="CSHIFT">      0.10000000</i>
   <i name="OMEGAMAX">     -1.00000000</i>
   <i name="DEG_THRESHOLD">      0.00200000</i>
  </separator>
  <separator name="orbital magnetization" >
   <i type="logical" name="NUCIND"> F  </i>
   <v name="MAGPOS">      0.00000000      0.00000000      0.00000000</v>
   <i type="logical" name="LNICSALL"> T  </i>
   <i type="logical" name="ORBITALMAG"> F  </i>
   <i type="logical" name="LMAGBLOCH"> F  </i>
   <i type="logical" name="LCHIMAG"> F  </i>
   <i type="logical" name="LGAUGE"> T  </i>
   <i type="int" name="MAGATOM">     0</i>
   <v name="MAGDIPOL">      0.00000000      0.00000000      0.00000000</v>
   <v name="AVECCONST">      0.00000000      0.00000000      0.00000000</v>
  </separator>
  <separator name="response functions" >
   <i type="logical" name="LADDER"> F  </i>
   <i type="logical" name="LFXC"> F  </i>
   <i type="logical" name="LHARTREE"> T  </i>
   <i type="int" name="IBSE">     0</i>
   <i type="logical" name="LTCTE"> F  </i>
   <i type="logical" name="LTETE"> F  </i>
   <i type="logical" name="LTRIPLET"> F  </i>
   <i type="logical" name="LFXCEPS"> F  </i>
   <i type="logical" name="L2ORDER"> F  </i>
   <i type="logical" name="LUSEW"> F  </i>
   <i name="ENCUTGW">     -2.00000000</i>
   <i name="ENCUTGWSOFT">     -2.00000000</i>
   <i name="ENCUTLF">     -1.00000000</i>
   <i type="int" name="LMAXMP2">    -1</i>
   <i name="SCISSOR">      0.00000000</i>
   <i type="int" name="NOMEGA">     0</i>
   <i type="int" name="NOMEGAR">     0</i>
   <i type="int" name="NBANDSGW">    -1</i>
   <i type="int" name="NBANDSO">    -1</i>
   <i type="int" name="NBANDSV">    -1</i>
   <i type="int" name="NELM">     1</i>
   <i type="int" name="DIM">     3</i>
   <i type="int" name="ANTIRES">     0</i>
   <i name="OMEGAMAX">    -30.00000000</i>
   <i name="OMEGATL">   -200.00000000</i>
   <i type="int" name="OMEGAGRID">     0</i>
   <i name="CSHIFT">     -0.10000000</i>
   <i type="logical" name="SELFENERGY"> F  </i>
   <i type="logical" name="LSPECTRAL"> F  </i>
   <i type="logical" name="ODDONLYGW"> F  </i>
   <i type="logical" name="EVENONLYGW"> F  </i>
   <i type="int" name="NKREDLFX">     1</i>
   <i type="int" name="NKREDLFY">     1</i>
   <i type="int" name="NKREDLFZ">     1</i>
   <i type="int" name="MAXMEM">  1800</i>
   <i type="int" name="TELESCOPE">     0</i>
  </separator>
 </parameters>
 <atominfo>
  <atoms>      60 </atoms>
  <types>       5 </types>
  <array name="atoms" >
   <dimension dim="1">ion</dimension>
   <field type="string">element</field>
   <field type="int">atomtype</field>
   <set>
    <rc><c>Li</c><c>   1</c></rc>
    <rc><c>Li</c><c>   1</c></rc>
    <rc><c>Li</c><c>   1</c></rc>
    <rc><c>Li</c><c>   1</c></rc>
    <rc><c>Li</c><c>   1</c></rc>
    <rc><c>Li</c><c>   1</c></rc>
    <rc><c>Li</c><c>   1</c></rc>
    <rc><c>Li</c><c>   1</c></rc>
    <rc><c>Mg</c><c>   2</c></rc>
    <rc><c>Mg</c><c>   2</c></rc>
    <rc><c>Mg</c><c>   2</c></rc>
    <rc><c>Mg</c><c>   2</c></rc>
    <rc><c>Bi</c><c>   3</c></rc>
    <rc><c>Bi</c><c>   3</c></rc>
    <rc><c>Bi</c><c>   3</c></rc>
    <rc><c>Bi</c><c>   3</c></rc>
    <rc><c>Bi</c><c>   3</c></rc>
    <rc><c>Bi</c><c>   3</c></rc>
    <rc><c>Bi</c><c>   3</c></rc>
    <rc><c>Bi</c><c>   3</c></rc>
    <rc><c>Bi</c><c>   3</c></rc>
    <rc><c>Bi</c><c>   3</c></rc>
    <rc><c>Bi</c><c>   3</c></rc>
    <rc><c>Bi</c><c>   3</c></rc>
    <rc><c>Bi</c><c>   3</c></rc>
    <rc><c>Bi</c><c>   3</c></rc>
    <rc><c>Bi</c><c>   3</c></rc>
    <rc><c>Bi</c><c>   3</c></rc>
    <rc><c>S </c><c>   4</c></rc>
    <rc><c>S </c><c>   4</c></rc>
    <rc><c>S </c><c>   4</c></rc>
    <rc><c>S </c><c>   4</c></rc>
    <rc><c>S </c><c>   4</c></rc>
    <rc><c>S </c><c>   4</c></rc>
    <rc><c>S </c><c>   4</c></rc>
    <rc><c>S </c><c>   4</c></rc>
    <rc><c>S </c><c>   4</c></rc>
    <rc><c>S </c><c>   4</c></rc>
    <rc><c>S </c><c>   4</c></rc>
    <rc><c>S </c><c>   4</c></rc>
    <rc><c>S </c><c>   4</c></rc>
    <rc><c>S </c><c>   4</c></rc>
    <rc><c>S </c><c>   4</c></rc>
    <rc><c>S </c><c>   4</c></rc>
    <rc><c>O </c><c>   5</c></rc>
    <rc><c>O </c><c>   5</c></rc>
    <rc><c>O </c><c>   5</c></rc>
    <rc><c>O </c><c>   5</c></rc>
    <rc><c>O </c><c>   5</c></rc>
    <rc><c>O </c><c>   5</c></rc>
    <rc><c>O </c><c>   5</c></rc>
    <rc><c>O </c><c>   5</c></rc>
    <rc><c>O </c><c>   5</c></rc>
    <rc><c>O </c><c>   5</c></rc>
    <rc><c>O </c><c>   5</c></rc>
    <rc><c>O </c><c>   5</c></rc>
    <rc><c>O </c><c>   5</c></rc>
    <rc><c>O </c><c>   5</c></rc>
    <rc><c>O </c><c>   5</c></rc>
    <rc><c>O </c><c>   5</c></rc>
   </set>
  </array>
  <array name="atomtypes" >
   <dimension dim="1">type</dimension>
   <field type="int">atomspertype</field>
   <field type="string">element</field>
   <field>mass</field>
   <field>valence</field>
   <field type="string">pseudopotential</field>
   <set>
    <rc><c>   8</c><c>Li</c><c>      7.01000000</c><c>      3.00000000</c><c>  PAW_PBE Li_sv 10Sep2004               </c></rc>
    <rc><c>   4</c><c>Mg</c><c>     24.30500000</c><c>      2.00000000</c><c>  PAW_PBE Mg 13Apr2007                  </c></rc>
    <rc><c>  16</c><c>Bi</c><c>    208.98000000</c><c>     15.00000000</c><c>  PAW_PBE Bi_d 06Sep2000                </c></rc>
    <rc><c>  16</c><c>S </c><c>     32.06600000</c><c>      6.00000000</c><c>  PAW_PBE S 06Sep2000                   </c></rc>
    <rc><c>  16</c><c>O </c><c>     16.00000000</c><c>      6.00000000</c><c>  PAW_PBE O 08Apr2002                   </c></rc>
   </set>
  </array>
 </atominfo>
 <structure name="initialpos" >
  <crystal>
   <varray name="basis" >
    <v>      11.17850000       0.00000000       0.00000000 </v>
    <v>       0.00000000       9.57460000       0.00000000 </v>
    <v>       0.00000000       0.00000000      11.18240000 </v>
   </varray>
   <i name="volume">   1196.84853820 </i>
   <varray name="rec_basis" >
    <v>       0.08945744       0.00000000       0.00000000 </v>
    <v>       0.00000000       0.10444301       0.00000000 </v>
    <v>       0.00000000       0.00000000       0.08942624 </v>
   </varray>
  </crystal>
  <varray name="positions" >
   <v>       0.37539000       0.00017000       0.43687000 </v>
   <v>       0.37461000       0.00017000       0.18687000 </v>
   <v>       0.62539000       0.99984000       0.43687000 </v>
   <v>       0.87461000       0.00017000       0.18687000 </v>
   <v>       0.37539000       0.00017000       0.93687000 </v>
   <v>       0.37461000       0.00017000       0.68687000 </v>
   <v>       0.62539000       0.99984000       0.93687000 </v>
   <v>       0.87461000       0.00017000       0.68687000 </v>
   <v>       0.87539000       0.00017000       0.43687000 </v>
   <v>       0.62461000       0.99984000       0.18687000 </v>
   <v>       0.87539000       0.00017000       0.93687000 </v>
   <v>       0.62461000       0.99984000       0.68687000 </v>
   <v>       0.00013000       0.29519000       0.06281000 </v>
   <v>       0.25013000       0.70481000       0.06281000 </v>
   <v>       0.24987000       0.29519000       0.31282000 </v>
   <v>       0.49987000       0.70481000       0.31282000 </v>
   <v>       0.50013000       0.29519000       0.06281000 </v>
   <v>       0.75013000       0.70481000       0.06281000 </v>
   <v>       0.74987000       0.29519000       0.31282000 </v>
   <v>       0.99987000       0.70481000       0.31282000 </v>
   <v>       0.00013000       0.29519000       0.56281000 </v>
   <v>       0.25013000       0.70481000       0.56281000 </v>
   <v>       0.24987000       0.29519000       0.81282000 </v>
   <v>       0.49987000       0.70481000       0.81282000 </v>
   <v>       0.50013000       0.29519000       0.56281000 </v>
   <v>       0.75013000       0.70481000       0.56281000 </v>
   <v>       0.74987000       0.29519000       0.81282000 </v>
   <v>       0.99987000       0.70481000       0.81282000 </v>
   <v>       0.25005000       0.32677000       0.06286000 </v>
   <v>       0.00005000       0.67323000       0.06286000 </v>
   <v>       0.49995000       0.32677000       0.31286000 </v>
   <v>       0.24995000       0.67323000       0.31286000 </v>
   <v>       0.75005000       0.32677000       0.06286000 </v>
   <v>       0.50005000       0.67323000       0.06286000 </v>
   <v>       0.99995000       0.32677000       0.31286000 </v>
   <v>       0.74995000       0.67323000       0.31286000 </v>
   <v>       0.25005000       0.32677000       0.56286000 </v>
   <v>       0.00005000       0.67323000       0.56286000 </v>
   <v>       0.49995000       0.32677000       0.81286000 </v>
   <v>       0.24995000       0.67323000       0.81286000 </v>
   <v>       0.75005000       0.32677000       0.56286000 </v>
   <v>       0.50005000       0.67323000       0.56286000 </v>
   <v>       0.99995000       0.32677000       0.81286000 </v>
   <v>       0.74995000       0.67323000       0.81286000 </v>
   <v>       0.49987000       0.07798000       0.06246000 </v>
   <v>       0.24987000       0.92202000       0.06246000 </v>
   <v>       0.25013000       0.07798000       0.31246000 </v>
   <v>       0.00013000       0.92202000       0.31246000 </v>
   <v>       0.99987000       0.07798000       0.06246000 </v>
   <v>       0.74987000       0.92202000       0.06246000 </v>
   <v>       0.75013000       0.07798000       0.31246000 </v>
   <v>       0.50013000       0.92202000       0.31246000 </v>
   <v>       0.49987000       0.07798000       0.56246000 </v>
   <v>       0.24987000       0.92202000       0.56246000 </v>
   <v>       0.25013000       0.07798000       0.81246000 </v>
   <v>       0.00013000       0.92202000       0.81246000 </v>
   <v>       0.99987000       0.07798000       0.56246000 </v>
   <v>       0.74987000       0.92202000       0.56246000 </v>
   <v>       0.75013000       0.07798000       0.81246000 </v>
   <v>       0.50013000       0.92202000       0.81246000 </v>
  </varray>
 </structure>
 <calculation>
  <scstep>
   <time name="dav">   39.04   39.21</time>
   <time name="total">   39.12   39.30</time>
   <energy>
    <i name="alphaZ">   1067.11773629 </i>
    <i name="ewald"> -30618.14251081 </i>
    <i name="hartreedc"> -12732.09943062 </i>
    <i name="XCdc">   1321.29066561 </i>
    <i name="pawpsdc">  36729.48549953 </i>
    <i name="pawaedc"> -36149.63912807 </i>
    <i name="eentropy">      0.00000000 </i>
    <i name="bandstr">   1660.93820270 </i>
    <i name="atom">  44408.54722957 </i>
    <i name="e_fr_energy">   5687.49826418 </i>
    <i name="e_wo_entrp">   5687.49826418 </i>
    <i name="e_0_energy">   5687.49826418 </i>
   </energy>
  </scstep>
  <scstep>
   <time name="dav">   39.08   39.24</time>
   <time name="total">   39.09   39.29</time>
   <energy>
    <i name="e_fr_energy">    702.40084875 </i>
    <i name="e_wo_entrp">    702.40084875 </i>
    <i name="e_0_energy">    702.40084875 </i>
   </energy>
  </scstep>
  <scstep>
   <time name="dav">   45.79   45.94</time>
   <time name="total">   45.79   45.99</time>
   <energy>
    <i name="e_fr_energy">   -254.66632718 </i>
    <i name="e_wo_entrp">   -254.66632718 </i>
    <i name="e_0_energy">   -254.66632718 </i>
   </energy>
  </scstep>
  <scstep>
   <time name="dav">   50.37   50.75</time>
   <time name="total">   50.37   50.82</time>
   <energy>
    <i name="e_fr_energy">   -340.45109951 </i>
    <i name="e_wo_entrp">   -340.45109951 </i>
    <i name="e_0_energy">   -340.45109951 </i>
   </energy>
  </scstep>
  <scstep>
   <time name="dav">   62.56   62.95</time>
   <time name="total">   63.01   63.43</time>
   <energy>
    <i name="e_fr_energy">   -346.15405087 </i>
    <i name="e_wo_entrp">   -346.15405087 </i>
    <i name="e_0_energy">   -346.15405087 </i>
   </energy>
  </scstep>
  <scstep>
   <time name="dav">   56.88   56.98</time>
   <time name="total">   57.38   57.51</time>
   <energy>
    <i name="e_fr_energy">   -289.86470021 </i>
    <i name="e_wo_entrp">   -289.86470021 </i>
    <i name="e_0_energy">   -289.86470021 </i>
   </energy>
  </scstep>
  <scstep>
   <time name="dav">   43.48   43.92</time>
   <time name="total">   43.99   44.47</time>
   <energy>
    <i name="e_fr_energy">   -290.69702502 </i>
    <i name="e_wo_entrp">   -290.69702502 </i>
    <i name="e_0_energy">   -290.69702502 </i>
   </energy>
  </scstep>
  <scstep>
   <time name="dav">   47.33   47.95</time>
   <time name="total">   47.83   48.47</time>
   <energy>
    <i name="e_fr_energy">   -289.38146573 </i>
    <i name="e_wo_entrp">   -289.38146573 </i>
    <i name="e_0_energy">   -289.38146573 </i>
   </energy>
  </scstep>
  <scstep>
   <time name="dav">   48.76   49.20</time>
   <time name="total">   49.26   49.75</time>
   <energy>
    <i name="e_fr_energy">   -288.95109445 </i>
    <i name="e_wo_entrp">   -288.95109445 </i>
    <i name="e_0_energy">   -288.95109445 </i>
   </energy>
  </scstep>
  <scstep>
   <time name="dav">   51.80   52.40</time>
   <time name="total">   52.30   52.92</time>
   <energy>
    <i name="e_fr_energy">   -288.99185538 </i>
    <i name="e_wo_entrp">   -288.99185538 </i>
    <i name="e_0_energy">   -288.99185538 </i>
   </energy>
  </scstep>
  <scstep>
   <time name="dav">   55.14   55.47</time>
   <time name="total">   55.64   56.07</time>
   <energy>
    <i name="e_fr_energy">   -288.99029732 </i>
    <i name="e_wo_entrp">   -288.99029732 </i>
    <i name="e_0_energy">   -288.99029732 </i>
   </energy>
  </scstep>
  <scstep>
   <time name="dav">   47.49   48.20</time>
   <time name="total">   47.99   48.72</time>
   <energy>
    <i name="e_fr_energy">   -288.99558458 </i>
    <i name="e_wo_entrp">   -288.99558458 </i>
    <i name="e_0_energy">   -288.99558458 </i>
   </energy>
  </scstep>
  <scstep>
   <time name="dav">   47.42   47.87</time>
   <time name="total">   47.91   48.39</time>
   <energy>
    <i name="e_fr_energy">   -288.99555567 </i>
    <i name="e_wo_entrp">   -288.99555567 </i>
    <i name="e_0_energy">   -288.99555567 </i>
   </energy>
  </scstep>
  <scstep>
   <time name="dav">   54.41   54.52</time>
   <time name="total">   54.92   55.06</time>
   <energy>
    <i name="e_fr_energy">   -288.99572624 </i>
    <i name="e_wo_entrp">   -288.99572624 </i>
    <i name="e_0_energy">   -288.99572624 </i>
   </energy>
  </scstep>
  <scstep>
   <time name="dav">   56.15   56.62</time>
   <time name="total">   56.65   57.13</time>
   <energy>
    <i name="e_fr_energy">   -288.99575460 </i>
    <i name="e_wo_entrp">   -288.99575460 </i>
    <i name="e_0_energy">   -288.99575460 </i>
   </energy>
  </scstep>
  <scstep>
   <time name="dav">   50.29   50.81</time>
   <time name="total">   50.79   51.34</time>
   <energy>
    <i name="e_fr_energy">   -288.99578066 </i>
    <i name="e_wo_entrp">   -288.99578066 </i>
    <i name="e_0_energy">   -288.99578066 </i>
   </energy>
  </scstep>
  <scstep>
   <time name="dav">   46.77   47.64</time>
   <time name="total">   47.27   48.17</time>
   <energy>
    <i name="e_fr_energy">   -288.99578425 </i>
    <i name="e_wo_entrp">   -288.99578425 </i>
    <i name="e_0_energy">   -288.99578425 </i>
   </energy>
  </scstep>
  <scstep>
   <time name="dav">   42.00   42.31</time>
   <time name="total">   42.50   42.86</time>
   <energy>
    <i name="e_fr_energy">   -288.99578563 </i>
    <i name="e_wo_entrp">   -288.99578563 </i>
    <i name="e_0_energy">   -288.99578563 </i>
   </energy>
  </scstep>
  <scstep>
   <time name="dav">   35.25   35.54</time>
   <time name="total">   35.30   35.62</time>
   <energy>
    <i name="alphaZ">   1067.11773629 </i>
    <i name="ewald"> -30618.14251081 </i>
    <i name="hartreedc"> -12952.22032217 </i>
    <i name="XCdc">   1344.72240834 </i>
    <i name="pawpsdc">  43753.00577854 </i>
    <i name="pawaedc"> -43147.87203165 </i>
    <i name="eentropy">      0.00000000 </i>
    <i name="bandstr">  -4144.15407438 </i>
    <i name="atom">  44408.54722957 </i>
    <i name="e_fr_energy">   -288.99578628 </i>
    <i name="e_wo_entrp">   -288.99578628 </i>
    <i name="e_0_energy">   -288.99578628 </i>
   </energy>
  </scstep>
  <structure>
   <crystal>
    <varray name="basis" >
     <v>      11.17850000       0.00000000       0.00000000 </v>
     <v>       0.00000000       9.57460000       0.00000000 </v>
     <v>       0.00000000       0.00000000      11.18240000 </v>
    </varray>
    <i name="volume">   1196.84853820 </i>
    <varray name="rec_basis" >
     <v>       0.08945744       0.00000000       0.00000000 </v>
     <v>       0.00000000       0.10444301       0.00000000 </v>
     <v>       0.00000000       0.00000000       0.08942624 </v>
    </varray>
   </crystal>
   <varray name="positions" >
    <v>       0.37539000       0.00017000       0.43687000 </v>
    <v>       0.37461000       0.00017000       0.18687000 </v>
    <v>       0.62539000       0.99984000       0.43687000 </v>
    <v>       0.87461000       0.00017000       0.18687000 </v>
    <v>       0.37539000       0.00017000       0.93687000 </v>
    <v>       0.37461000       0.00017000       0.68687000 </v>
    <v>       0.62539000       0.99984000       0.93687000 </v>
    <v>       0.87461000       0.00017000       0.68687000 </v>
    <v>       0.87539000       0.00017000       0.43687000 </v>
    <v>       0.62461000       0.99984000       0.18687000 </v>
    <v>       0.87539000       0.00017000       0.93687000 </v>
    <v>       0.62461000       0.99984000       0.68687000 </v>
    <v>       0.00013000       0.29519000       0.06281000 </v>
    <v>       0.25013000       0.70481000       0.06281000 </v>
    <v>       0.24987000       0.29519000       0.31282000 </v>
    <v>       0.49987000       0.70481000       0.31282000 </v>
    <v>       0.50013000       0.29519000       0.06281000 </v>
    <v>       0.75013000       0.70481000       0.06281000 </v>
    <v>       0.74987000       0.29519000       0.31282000 </v>
    <v>       0.99987000       0.70481000       0.31282000 </v>
    <v>       0.00013000       0.29519000       0.56281000 </v>
    <v>       0.25013000       0.70481000       0.56281000 </v>
    <v>       0.24987000       0.29519000       0.81282000 </v>
    <v>       0.49987000       0.70481000       0.81282000 </v>
    <v>       0.50013000       0.29519000       0.56281000 </v>
    <v>       0.75013000       0.70481000       0.56281000 </v>
    <v>       0.74987000       0.29519000       0.81282000 </v>
    <v>       0.99987000       0.70481000       0.81282000 </v>
    <v>       0.25005000       0.32677000       0.06286000 </v>
    <v>       0.00005000       0.67323000       0.06286000 </v>
    <v>       0.49995000       0.32677000       0.31286000 </v>
    <v>       0.24995000       0.67323000       0.31286000 </v>
    <v>       0.75005000       0.32677000       0.06286000 </v>
    <v>       0.50005000       0.67323000       0.06286000 </v>
    <v>       0.99995000       0.32677000       0.31286000 </v>
    <v>       0.74995000       0.67323000       0.31286000 </v>
    <v>       0.25005000       0.32677000       0.56286000 </v>
    <v>       0.00005000       0.67323000       0.56286000 </v>
    <v>       0.49995000       0.32677000       0.81286000 </v>
    <v>       0.24995000       0.67323000       0.81286000 </v>
    <v>       0.75005000       0.32677000       0.56286000 </v>
    <v>       0.50005000       0.67323000       0.56286000 </v>
    <v>       0.99995000       0.32677000       0.81286000 </v>
    <v>       0.74995000       0.67323000       0.81286000 </v>
    <v>       0.49987000       0.07798000       0.06246000 </v>
    <v>       0.24987000       0.92202000       0.06246000 </v>
    <v>       0.25013000       0.07798000       0.31246000 </v>
    <v>       0.00013000       0.92202000       0.31246000 </v>
    <v>       0.99987000       0.07798000       0.06246000 </v>
    <v>       0.74987000       0.92202000       0.06246000 </v>
    <v>       0.75013000       0.07798000       0.31246000 </v>
    <v>       0.50013000       0.92202000       0.31246000 </v>
    <v>       0.49987000       0.07798000       0.56246000 </v>
    <v>       0.24987000       0.92202000       0.56246000 </v>
    <v>       0.25013000       0.07798000       0.81246000 </v>
    <v>       0.00013000       0.92202000       0.81246000 </v>
    <v>       0.99987000       0.07798000       0.56246000 </v>
    <v>       0.74987000       0.92202000       0.56246000 </v>
    <v>       0.75013000       0.07798000       0.81246000 </v>
    <v>       0.50013000       0.92202000       0.81246000 </v>
   </varray>
  </structure>
  <varray name="forces" >
   <v>      -1.16069542      -0.00164326       0.00544097 </v>
   <v>      -1.46828366      -0.00167176       0.00722795 </v>
   <v>      -0.56339410      -0.00100532       0.00523781 </v>
   <v>       1.49790713      -0.00106743       0.00610898 </v>
   <v>      -1.16069542      -0.00164326       0.00544097 </v>
   <v>      -1.46828366      -0.00167176       0.00722795 </v>
   <v>      -0.56339410      -0.00100532       0.00523781 </v>
   <v>       1.49790713      -0.00106743       0.00610898 </v>
   <v>       2.13396349      -0.00518009       0.03184290 </v>
   <v>      -0.47674584       0.00187968       0.03082020 </v>
   <v>       2.13396349      -0.00518009       0.03184290 </v>
   <v>      -0.47674584       0.00187968       0.03082020 </v>
   <v>       0.94011354      -0.90868597       0.05492667 </v>
   <v>      -0.47574380       1.89270163      -0.00477413 </v>
   <v>      -0.45735006      -1.89002554      -0.00526541 </v>
   <v>      -0.91549084      -1.16985725       0.06827477 </v>
   <v>      -0.92601245       1.17669852      -0.07520356 </v>
   <v>       0.41512220      -2.14999453      -0.00112307 </v>
   <v>       0.41558741       2.14982330      -0.00465195 </v>
   <v>       0.95615276       0.90548336      -0.06507768 </v>
   <v>       0.94011354      -0.90868597       0.05492667 </v>
   <v>      -0.47574380       1.89270163      -0.00477413 </v>
   <v>      -0.45735006      -1.89002554      -0.00526541 </v>
   <v>      -0.91549084      -1.16985725       0.06827477 </v>
   <v>      -0.92601245       1.17669852      -0.07520356 </v>
   <v>       0.41512220      -2.14999453      -0.00112307 </v>
   <v>       0.41558741       2.14982330      -0.00465195 </v>
   <v>       0.95615276       0.90548336      -0.06507768 </v>
   <v>       0.41378894       0.25986670      -0.00319798 </v>
   <v>      -0.74335013      -0.14199531      -0.04864201 </v>
   <v>       0.62189703       0.04120256      -0.05238341 </v>
   <v>       0.41613820      -0.26075661      -0.00120527 </v>
   <v>      -0.27317532      -0.06324419       0.00790311 </v>
   <v>       0.62373782      -0.03996489       0.05431659 </v>
   <v>      -0.74285470       0.13983543       0.04650261 </v>
   <v>      -0.27144625       0.06210588      -0.00591446 </v>
   <v>       0.41378894       0.25986670      -0.00319798 </v>
   <v>      -0.74335013      -0.14199531      -0.04864201 </v>
   <v>       0.62189703       0.04120256      -0.05238341 </v>
   <v>       0.41613820      -0.26075661      -0.00120527 </v>
   <v>      -0.27317532      -0.06324419       0.00790311 </v>
   <v>       0.62373782      -0.03996489       0.05431659 </v>
   <v>      -0.74285470       0.13983543       0.04650261 </v>
   <v>      -0.27144625       0.06210588      -0.00591446 </v>
   <v>       1.11608948      -1.03029456       0.49808754 </v>
   <v>       1.43108146      -1.57966174       0.00333497 </v>
   <v>       1.42001826       1.58115904       0.00172694 </v>
   <v>      -2.14905798      -0.61651457       0.43002111 </v>
   <v>      -2.14546977       0.61547775      -0.43714627 </v>
   <v>      -0.35667772       1.76440178       0.02365816 </v>
   <v>      -0.38797906      -1.76221689      -0.05802734 </v>
   <v>       1.11212939       1.03314428      -0.51281873 </v>
   <v>       1.11608948      -1.03029456       0.49808754 </v>
   <v>       1.43108146      -1.57966174       0.00333497 </v>
   <v>       1.42001826       1.58115904       0.00172694 </v>
   <v>      -2.14905798      -0.61651457       0.43002111 </v>
   <v>      -2.14546977       0.61547775      -0.43714627 </v>
   <v>      -0.35667772       1.76440178       0.02365816 </v>
   <v>      -0.38797906      -1.76221689      -0.05802734 </v>
   <v>       1.11212939       1.03314428      -0.51281873 </v>
  </varray>
  <varray name="stress" >
   <v>      -9.48655215      -0.16750292      -0.00139916 </v>
   <v>      -0.16750301     -12.07469848      -0.11885544 </v>
   <v>      -0.00139880      -0.11885536       3.09579393 </v>
  </varray>
  <energy>
   <i name="e_fr_energy">   -302.52342590 </i>
   <i name="e_wo_entrp">   -302.52342590 </i>
   <i name="e_0_energy">      0.00000000 </i>
  </energy>
  <time name="totalsc"> 1009.48 1018.27</time>
 </calculation>
 <calculation>
  <scstep>
   <time name="dav">   39.38   39.48</time>
   <time name="total">   39.92   40.03</time>
   <energy>
    <i name="alphaZ">   1079.06693638 </i>
    <i name="ewald"> -30719.54161875 </i>
    <i name="hartreedc"> -12996.27914765 </i>
    <i name="XCdc">   1351.35576765 </i>
    <i name="pawpsdc">  43752.81580089 </i>
    <i name="pawaedc"> -43147.68024792 </i>
    <i name="eentropy">      0.00000000 </i>
    <i name="bandstr">  -4014.92444589 </i>
    <i name="atom">  44408.54722957 </i>
    <i name="e_fr_energy">   -286.63972571 </i>
    <i name="e_wo_entrp">   -286.63972571 </i>
    <i name="e_0_energy">   -286.63972571 </i>
   </energy>
  </scstep>
  <scstep>
   <time name="dav">   47.10   47.35</time>
   <time name="total">   47.61   47.91</time>
   <energy>
    <i name="e_fr_energy">   -292.22956299 </i>
    <i name="e_wo_entrp">   -292.22956299 </i>
    <i name="e_0_energy">   -292.22956299 </i>
   </energy>
  </scstep>
  <scstep>
   <time name="dav">   61.43   61.89</time>
   <time name="total">   61.94   62.41</time>
   <energy>
    <i name="e_fr_energy">   -292.05470005 </i>
    <i name="e_wo_entrp">   -292.05470005 </i>
    <i name="e_0_energy">   -292.05470005 </i>
   </energy>
  </scstep>
  <scstep>
   <time name="dav">   48.84   49.78</time>
   <time name="total">   49.36   50.32</time>
   <energy>
    <i name="e_fr_energy">   -291.88142385 </i>
    <i name="e_wo_entrp">   -291.88142385 </i>
    <i name="e_0_energy">   -291.88142385 </i>
   </energy>
  </scstep>
  <scstep>
   <time name="dav">   51.52   51.96</time>
   <time name="total">   52.03   52.49</time>
   <energy>
    <i name="e_fr_energy">   -291.83369437 </i>
    <i name="e_wo_entrp">   -291.83369437 </i>
    <i name="e_0_energy">   -291.83369437 </i>
   </energy>
  </scstep>
  <scstep>
   <time name="dav">   51.73   52.09</time>
   <time name="total">   52.23   52.61</time>
   <energy>
    <i name="e_fr_energy">   -291.83323363 </i>
    <i name="e_wo_entrp">   -291.83323363 </i>
    <i name="e_0_energy">   -291.83323363 </i>
   </energy>
  </scstep>
  <scstep>
   <time name="dav">   55.73   56.22</time>
   <time name="total">   56.25   56.79</time>
   <energy>
    <i name="e_fr_energy">   -291.83208312 </i>
    <i name="e_wo_entrp">   -291.83208312 </i>
    <i name="e_0_energy">   -291.83208312 </i>
   </energy>
  </scstep>
  <scstep>
   <time name="dav">   53.37   53.92</time>
   <time name="total">   53.88   54.48</time>
   <energy>
    <i name="e_fr_energy">   -291.83160942 </i>
    <i name="e_wo_entrp">   -291.83160942 </i>
    <i name="e_0_energy">   -291.83160942 </i>
   </energy>
  </scstep>
  <scstep>
   <time name="dav">   48.21   48.64</time>
   <time name="total">   48.72   49.18</time>
   <energy>
    <i name="e_fr_energy">   -291.83168228 </i>
    <i name="e_wo_entrp">   -291.83168228 </i>
    <i name="e_0_energy">   -291.83168228 </i>
   </energy>
  </scstep>
  <scstep>
   <time name="dav">   51.75   52.46</time>
   <time name="total">   52.26   52.98</time>
   <energy>
    <i name="e_fr_energy">   -291.83170648 </i>
    <i name="e_wo_entrp">   -291.83170648 </i>
    <i name="e_0_energy">   -291.83170648 </i>
   </energy>
  </scstep>
  <scstep>
   <time name="dav">   44.00   44.55</time>
   <time name="total">   44.51   45.09</time>
   <energy>
    <i name="e_fr_energy">   -291.83171847 </i>
    <i name="e_wo_entrp">   -291.83171847 </i>
    <i name="e_0_energy">   -291.83171847 </i>
   </energy>
  </scstep>
  <scstep>
   <time name="dav">   49.40   49.62</time>
   <time name="total">   49.93   50.17</time>
   <energy>
    <i name="e_fr_energy">   -291.83171872 </i>
    <i name="e_wo_entrp">   -291.83171872 </i>
    <i name="e_0_energy">   -291.83171872 </i>
   </energy>
  </scstep>
  <scstep>
   <time name="dav">   37.75   37.86</time>
   <time name="total">   37.82   38.01</time>
   <energy>
    <i name="alphaZ">   1079.06693638 </i>
    <i name="ewald"> -30719.54161875 </i>
    <i name="hartreedc"> -12910.27360104 </i>
    <i name="XCdc">   1347.71480550 </i>
    <i name="pawpsdc">  44104.86586854 </i>
    <i name="pawaedc"> -43502.74603634 </i>
    <i name="eentropy">      0.00000000 </i>
    <i name="bandstr">  -4099.46530260 </i>
    <i name="atom">  44408.54722957 </i>
    <i name="e_fr_energy">   -291.83171873 </i>
    <i name="e_wo_entrp">   -291.83171873 </i>
    <i name="e_0_energy">   -291.83171873 </i>
   </energy>
  </scstep>
  <structure>
   <crystal>
    <varray name="basis" >
     <v>      11.11480571      -0.00112464      -0.00000939 </v>
     <v>      -0.00096328       9.50516068      -0.00068352 </v>
     <v>      -0.00000940      -0.00079829      11.20319293 </v>
    </varray>
    <i name="volume">   1183.59506690 </i>
    <varray name="rec_basis" >
     <v>       0.08997008       0.00000912       0.00000008 </v>
     <v>       0.00001065       0.10520601       0.00000750 </v>
     <v>       0.00000008       0.00000642       0.08926027 </v>
    </varray>
   </crystal>
   <varray name="positions" >
    <v>       0.37038083       0.00016172       0.43689347 </v>
    <v>       0.36827338       0.00016158       0.18690118 </v>
    <v>       0.62295858       0.99983493       0.43689260 </v>
    <v>       0.88107446       0.00016462       0.18689636 </v>
    <v>       0.37038083       0.00016172       0.93689347 </v>
    <v>       0.36827338       0.00016158       0.68690118 </v>
    <v>       0.62295858       0.99983493       0.93689260 </v>
    <v>       0.88107446       0.00016462       0.68689636 </v>
    <v>       0.88459947       0.00014390       0.43700738 </v>
    <v>       0.62255252       0.99984947       0.18700296 </v>
    <v>       0.88459947       0.00014390       0.93700738 </v>
    <v>       0.62255252       0.99984947       0.68700296 </v>
    <v>       0.00418721       0.29061149       0.06304696 </v>
    <v>       0.24807685       0.71434658       0.06278940 </v>
    <v>       0.24789623       0.28566690       0.31279728 </v>
    <v>       0.49591905       0.69891555       0.31311455 </v>
    <v>       0.49613364       0.30111892       0.06248556 </v>
    <v>       0.75192153       0.69397702       0.06280515 </v>
    <v>       0.75166354       0.30602212       0.31279993 </v>
    <v>       0.00399643       0.70937238       0.31253924 </v>
    <v>       0.00418721       0.29061149       0.56304696 </v>
    <v>       0.24807685       0.71434658       0.56278940 </v>
    <v>       0.24789623       0.28566690       0.81279728 </v>
    <v>       0.49591905       0.69891555       0.81311455 </v>
    <v>       0.49613364       0.30111892       0.56248556 </v>
    <v>       0.75192153       0.69397702       0.56280515 </v>
    <v>       0.75166354       0.30602212       0.81279993 </v>
    <v>       0.00399643       0.70937238       0.81253924 </v>
    <v>       0.25183577       0.32807937       0.06284620 </v>
    <v>      -0.00315805       0.67251454       0.06265015 </v>
    <v>       0.50263390       0.32697760       0.31263401 </v>
    <v>       0.25174591       0.67191615       0.31285480 </v>
    <v>       0.74887107       0.32645134       0.06289410 </v>
    <v>       0.50274184       0.67302863       0.06309433 </v>
    <v>       0.99674409       0.32747458       0.31306062 </v>
    <v>       0.74877853       0.67354293       0.31283448 </v>
    <v>       0.25183577       0.32807937       0.56284620 </v>
    <v>      -0.00315805       0.67251454       0.56265015 </v>
    <v>       0.50263390       0.32697760       0.81263401 </v>
    <v>       0.25174591       0.67191615       0.81285480 </v>
    <v>       0.74887107       0.32645134       0.56289410 </v>
    <v>       0.50274184       0.67302863       0.56309433 </v>
    <v>       0.99674409       0.32747458       0.81306062 </v>
    <v>       0.74877853       0.67354293       0.81283448 </v>
    <v>       0.50468667       0.07278875       0.06460883 </v>
    <v>       0.25604607       0.91406070       0.06247439 </v>
    <v>       0.25625832       0.08594684       0.31246745 </v>
    <v>      -0.00914461       0.91891362       0.31431518 </v>
    <v>       0.99061087       0.08108115       0.06057408 </v>
    <v>       0.74833070       0.93091013       0.06256207 </v>
    <v>       0.74845561       0.06910088       0.31220966 </v>
    <v>       0.50492958       0.92722561       0.31024762 </v>
    <v>       0.50468667       0.07278875       0.56460883 </v>
    <v>       0.25604607       0.91406070       0.56247439 </v>
    <v>       0.25625832       0.08594684       0.81246745 </v>
    <v>      -0.00914461       0.91891362       0.81431518 </v>
    <v>       0.99061087       0.08108115       0.56057408 </v>
    <v>       0.74833070       0.93091013       0.56256207 </v>
    <v>       0.74845561       0.06910088       0.81220966 </v>
    <v>       0.50492958       0.92722561       0.81024762 </v>
   </varray>
  </structure>
  <varray name="forces" >
   <v>      -0.61846784      -0.00581484       0.00761428 </v>
   <v>      -0.83890982       0.00285585       0.00593549 </v>
   <v>      -0.17672010       0.00228990       0.01125874 </v>
   <v>       0.69583140      -0.00729427       0.01321766 </v>
   <v>      -0.61846784      -0.00581484       0.00761428 </v>
   <v>      -0.83890982       0.00285585       0.00593549 </v>
   <v>      -0.17672010       0.00228990       0.01125874 </v>
   <v>       0.69583140      -0.00729427       0.01321766 </v>
   <v>       0.10347711       0.01027473       0.02346150 </v>
   <v>       0.23606569      -0.00012919       0.02524457 </v>
   <v>       0.10347711       0.01027473       0.02346150 </v>
   <v>       0.23606569      -0.00012919       0.02524457 </v>
   <v>       0.40681537       0.66674661       0.06430155 </v>
   <v>      -0.30248629      -2.25855392       0.00216897 </v>
   <v>      -0.29878957       2.25120592       0.00041350 </v>
   <v>      -0.26292821       0.16734415       0.01243135 </v>
   <v>      -0.27428562      -0.16502553      -0.02242362 </v>
   <v>       0.08852448       0.16078572      -0.00413594 </v>
   <v>       0.09739234      -0.16075334      -0.00696386 </v>
   <v>       0.41579353      -0.67125367      -0.07024556 </v>
   <v>       0.40681537       0.66674661       0.06430155 </v>
   <v>      -0.30248629      -2.25855392       0.00216897 </v>
   <v>      -0.29878957       2.25120592       0.00041350 </v>
   <v>      -0.26292821       0.16734415       0.01243135 </v>
   <v>      -0.27428562      -0.16502553      -0.02242362 </v>
   <v>       0.08852448       0.16078572      -0.00413594 </v>
   <v>       0.09739234      -0.16075334      -0.00696386 </v>
   <v>       0.41579353      -0.67125367      -0.07024556 </v>
   <v>       0.22797784       0.12540449      -0.00551868 </v>
   <v>      -0.36745310      -0.07769885      -0.05123845 </v>
   <v>       0.22440499       0.20013622      -0.03973139 </v>
   <v>       0.22816626      -0.12645626       0.00249500 </v>
   <v>      -0.06187779       0.23718740       0.00746347 </v>
   <v>       0.22405992      -0.19800560       0.04094055 </v>
   <v>      -0.36828738       0.07433961       0.05020935 </v>
   <v>      -0.05848652      -0.23741110      -0.00721469 </v>
   <v>       0.22797784       0.12540449      -0.00551868 </v>
   <v>      -0.36745310      -0.07769885      -0.05123845 </v>
   <v>       0.22440499       0.20013622      -0.03973139 </v>
   <v>       0.22816626      -0.12645626       0.00249500 </v>
   <v>      -0.06187779       0.23718740       0.00746347 </v>
   <v>       0.22405992      -0.19800560       0.04094055 </v>
   <v>      -0.36828738       0.07433961       0.05020935 </v>
   <v>      -0.05848652      -0.23741110      -0.00721469 </v>
   <v>       0.15425838       0.50281436       0.15503421 </v>
   <v>       1.14447908       2.54037414      -0.02019171 </v>
   <v>       1.14282167      -2.52979213       0.00697974 </v>
   <v>      -1.06724885       0.59172659       0.04090051 </v>
   <v>      -1.06999582      -0.59148445      -0.06355862 </v>
   <v>       0.12198411      -0.61606196      -0.07940656 </v>
   <v>       0.10329617       0.61242654       0.06626342 </v>
   <v>       0.15058856      -0.50017714      -0.16570480 </v>
   <v>       0.15425838       0.50281436       0.15503421 </v>
   <v>       1.14447908       2.54037414      -0.02019171 </v>
   <v>       1.14282167      -2.52979213       0.00697974 </v>
   <v>      -1.06724885       0.59172659       0.04090051 </v>
   <v>      -1.06999582      -0.59148445      -0.06355862 </v>
   <v>       0.12198411      -0.61606196      -0.07940656 </v>
   <v>       0.10329617       0.61242654       0.06626342 </v>
   <v>       0.15058856      -0.50017714      -0.16570480 </v>
  </varray>
  <varray name="stress" >
   <v>      10.80085814      -0.11910621      -0.02922881 </v>
   <v>      -0.11910650      14.09725986       1.60268360 </v>
   <v>      -0.02922888       1.60268396       3.16609738 </v>
  </varray>
  <energy>
   <i name="e_fr_energy">   -305.53011930 </i>
   <i name="e_wo_entrp">   -305.53011930 </i>
   <i name="e_0_energy">      0.00000000 </i>
  </energy>
  <time name="totalsc">  721.15  727.61</time>
 </calculation>
 <calculation>
  <scstep>
   <time name="dav">   44.49   44.67</time>
   <time name="total">   44.99   45.18</time>
   <energy>
    <i name="alphaZ">   1077.67474768 </i>
    <i name="ewald"> -30712.93198239 </i>
    <i name="hartreedc"> -12900.79965288 </i>
    <i name="XCdc">   1346.87509356 </i>
    <i name="pawpsdc">  44104.94109462 </i>
    <i name="pawaedc"> -43502.82306833 </i>
    <i name="eentropy">      0.00000000 </i>
    <i name="bandstr">  -4113.33241449 </i>
    <i name="atom">  44408.54722957 </i>
    <i name="e_fr_energy">   -291.84895266 </i>
    <i name="e_wo_entrp">   -291.84895266 </i>
    <i name="e_0_energy">   -291.84895266 </i>
   </energy>
  </scstep>
  <scstep>
   <time name="dav">   46.07   46.40</time>
   <time name="total">   46.59   46.94</time>
   <energy>
    <i name="e_fr_energy">   -291.91720907 </i>
    <i name="e_wo_entrp">   -291.91720907 </i>
    <i name="e_0_energy">   -291.91720907 </i>
   </energy>
  </scstep>
  <scstep>
   <time name="dav">   54.74   55.62</time>
   <time name="total">   55.25   56.15</time>
   <energy>
    <i name="e_fr_energy">   -291.91390160 </i>
    <i name="e_wo_entrp">   -291.91390160 </i>
    <i name="e_0_energy">   -291.91390160 </i>
   </energy>
  </scstep>
  <scstep>
   <time name="dav">   48.40   48.83</time>
   <time name="total">   48.90   49.35</time>
   <energy>
    <i name="e_fr_energy">   -291.91040553 </i>
    <i name="e_wo_entrp">   -291.91040553 </i>
    <i name="e_0_energy">   -291.91040553 </i>
   </energy>
  </scstep>
  <scstep>
   <time name="dav">   55.68   56.15</time>
   <time name="total">   56.19   56.68</time>
   <energy>
    <i name="e_fr_energy">   -291.91016810 </i>
    <i name="e_wo_entrp">   -291.91016810 </i>
    <i name="e_0_energy">   -291.91016810 </i>
   </energy>
  </scstep>
  <scstep>
   <time name="dav">   46.49   46.89</time>
   <time name="total">   46.99   47.42</time>
   <energy>
    <i name="e_fr_energy">   -291.91014852 </i>
    <i name="e_wo_entrp">   -291.91014852 </i>
    <i name="e_0_energy">   -291.91014852 </i>
   </energy>
  </scstep>
  <scstep>
   <time name="dav">   52.15   52.25</time>
   <time name="total">   52.65   52.78</time>
   <energy>
    <i name="e_fr_energy">   -291.91011423 </i>
    <i name="e_wo_entrp">   -291.91011423 </i>
    <i name="e_0_energy">   -291.91011423 </i>
   </energy>
  </scstep>
  <scstep>
   <time name="dav">   54.29   54.39</time>
   <time name="total">   54.79   54.92</time>
   <energy>
    <i name="e_fr_energy">   -291.91011356 </i>
    <i name="e_wo_entrp">   -291.91011356 </i>
    <i name="e_0_energy">   -291.91011356 </i>
   </energy>
  </scstep>
  <scstep>
   <time name="dav">   41.57   41.91</time>
   <time name="total">   42.08   42.43</time>
   <energy>
    <i name="e_fr_energy">   -291.91011492 </i>
    <i name="e_wo_entrp">   -291.91011492 </i>
    <i name="e_0_energy">   -291.91011492 </i>
   </energy>
  </scstep>
  <scstep>
   <time name="dav">   38.98   39.76</time>
   <time name="total">   39.03   39.83</time>
   <energy>
    <i name="alphaZ">   1077.67474768 </i>
    <i name="ewald"> -30712.93198239 </i>
    <i name="hartreedc"> -12911.07283012 </i>
    <i name="XCdc">   1347.31947978 </i>
    <i name="pawpsdc">  44045.60694804 </i>
    <i name="pawaedc"> -43442.83201569 </i>
    <i name="eentropy">      0.00000000 </i>
    <i name="bandstr">  -4104.22169219 </i>
    <i name="atom">  44408.54722957 </i>
    <i name="e_fr_energy">   -291.91011532 </i>
    <i name="e_wo_entrp">   -291.91011532 </i>
    <i name="e_0_energy">   -291.91011532 </i>
   </energy>
  </scstep>
  <structure>
   <crystal>
    <varray name="basis" >
     <v>      11.12216418      -0.00099471      -0.00000831 </v>
     <v>      -0.00085199       9.51318286      -0.00060455 </v>
     <v>      -0.00000831      -0.00070607      11.20079076 </v>
    </varray>
    <i name="volume">   1185.12408823 </i>
    <varray name="rec_basis" >
     <v>       0.08991056       0.00000805       0.00000007 </v>
     <v>       0.00000940       0.10511729       0.00000663 </v>
     <v>       0.00000007       0.00000567       0.08927941 </v>
    </varray>
   </crystal>
   <varray name="positions" >
    <v>       0.37096284       0.00016275       0.43689077 </v>
    <v>       0.36900963       0.00016264       0.18689759 </v>
    <v>       0.62324109       0.99983556       0.43688999 </v>
    <v>       0.88032336       0.00016516       0.18689332 </v>
    <v>       0.37096284       0.00016275       0.93689077 </v>
    <v>       0.36900963       0.00016264       0.68689759 </v>
    <v>       0.62324109       0.99983556       0.93688999 </v>
    <v>       0.88032336       0.00016516       0.68689332 </v>
    <v>       0.88352942       0.00014681       0.43699153 </v>
    <v>       0.62279158       0.99984840       0.18698763 </v>
    <v>       0.88352942       0.00014681       0.93699153 </v>
    <v>       0.62279158       0.99984840       0.68698763 </v>
    <v>       0.00371585       0.29114424       0.06301967 </v>
    <v>       0.24831531       0.71323682       0.06279171 </v>
    <v>       0.24812566       0.28677515       0.31279997 </v>
    <v>       0.49637817       0.69960155       0.31308063 </v>
    <v>       0.49659792       0.30042902       0.06252293 </v>
    <v>       0.75171348       0.69523765       0.06280579 </v>
    <v>       0.75145504       0.30476154       0.31280217 </v>
    <v>       0.00351694       0.70884139       0.31257159 </v>
    <v>       0.00371585       0.29114424       0.56301967 </v>
    <v>       0.24831531       0.71323682       0.56279171 </v>
    <v>       0.24812566       0.28677515       0.81279997 </v>
    <v>       0.49637817       0.69960155       0.81308063 </v>
    <v>       0.49659792       0.30042902       0.56252293 </v>
    <v>       0.75171348       0.69523765       0.56280579 </v>
    <v>       0.75145504       0.30476154       0.81280217 </v>
    <v>       0.00351694       0.70884139       0.81257159 </v>
    <v>       0.25162827       0.32792697       0.06284778 </v>
    <v>      -0.00278530       0.67259785       0.06267435 </v>
    <v>       0.50232205       0.32695341       0.31266007 </v>
    <v>       0.25153726       0.67206902       0.31285541 </v>
    <v>       0.74900805       0.32648844       0.06289017 </v>
    <v>       0.50242908       0.67305203       0.06306731 </v>
    <v>       0.99711658       0.32739263       0.31303748 </v>
    <v>       0.74891464       0.67350653       0.31283742 </v>
    <v>       0.25162827       0.32792697       0.56284778 </v>
    <v>      -0.00278530       0.67259785       0.56267435 </v>
    <v>       0.50232205       0.32695341       0.81266007 </v>
    <v>       0.25153726       0.67206902       0.81285541 </v>
    <v>       0.74900805       0.32648844       0.56289017 </v>
    <v>       0.50242908       0.67305203       0.56306731 </v>
    <v>       0.99711658       0.32739263       0.81303748 </v>
    <v>       0.74891464       0.67350653       0.81283742 </v>
    <v>       0.50412707       0.07339278       0.06436108 </v>
    <v>       0.25532855       0.91498686       0.06247278 </v>
    <v>       0.25554619       0.08501964       0.31246653 </v>
    <v>      -0.00806696       0.91927523       0.31410128 </v>
    <v>       0.99168666       0.08072041       0.06079153 </v>
    <v>       0.74850946       0.92987559       0.06255023 </v>
    <v>       0.74865025       0.07013419       0.31223859 </v>
    <v>       0.50437186       0.92661978       0.31050270 </v>
    <v>       0.50412707       0.07339278       0.56436108 </v>
    <v>       0.25532855       0.91498686       0.56247278 </v>
    <v>       0.25554619       0.08501964       0.81246653 </v>
    <v>      -0.00806696       0.91927523       0.81410128 </v>
    <v>       0.99168666       0.08072041       0.56079153 </v>
    <v>       0.74850946       0.92987559       0.56255023 </v>
    <v>       0.74865025       0.07013419       0.81223859 </v>
    <v>       0.50437186       0.92661978       0.81050270 </v>
   </varray>
  </structure>
  <varray name="forces" >
   <v>      -0.68367826      -0.00535393       0.00749006 </v>
   <v>      -0.91511508       0.00230332       0.00597694 </v>
   <v>      -0.22130440       0.00191671       0.01051209 </v>
   <v>       0.79224316      -0.00648580       0.01238850 </v>
   <v>      -0.68367826      -0.00535393       0.00749006 </v>
   <v>      -0.91511508       0.00230332       0.00597694 </v>
   <v>      -0.22130440       0.00191671       0.01051209 </v>
   <v>       0.79224316      -0.00648580       0.01238850 </v>
   <v>       0.36248228       0.00880420       0.02432226 </v>
   <v>       0.14139864       0.00005267       0.02634826 </v>
   <v>       0.36248228       0.00880420       0.02432226 </v>
   <v>       0.14139864       0.00005267       0.02634826 </v>
   <v>       0.46124714       0.45714211       0.06122818 </v>
   <v>      -0.29586050      -1.57273429       0.00063913 </v>
   <v>      -0.29019065       1.56733562      -0.00086606 </v>
   <v>      -0.34758918       0.04324885       0.01961950 </v>
   <v>      -0.35910623      -0.04063700      -0.02904105 </v>
   <v>       0.13093952      -0.02458646      -0.00452676 </v>
   <v>       0.13909864       0.02466668      -0.00691093 </v>
   <v>       0.47114268      -0.46162933      -0.06757721 </v>
   <v>       0.46124714       0.45714211       0.06122818 </v>
   <v>      -0.29586050      -1.57273429       0.00063913 </v>
   <v>      -0.29019065       1.56733562      -0.00086606 </v>
   <v>      -0.34758918       0.04324885       0.01961950 </v>
   <v>      -0.35910623      -0.04063700      -0.02904105 </v>
   <v>       0.13093952      -0.02458646      -0.00452676 </v>
   <v>       0.13909864       0.02466668      -0.00691093 </v>
   <v>       0.47114268      -0.46162933      -0.06757721 </v>
   <v>       0.25396267       0.14395837      -0.00520882 </v>
   <v>      -0.41894899      -0.08733669      -0.05068584 </v>
   <v>       0.27349509       0.18413485      -0.04141938 </v>
   <v>       0.25437203      -0.14502392       0.00204166 </v>
   <v>      -0.08531767       0.20517619       0.00750765 </v>
   <v>       0.27331443      -0.18210885       0.04273286 </v>
   <v>      -0.41957631       0.08407250       0.04958506 </v>
   <v>      -0.08205559      -0.20549869      -0.00704794 </v>
   <v>       0.25396267       0.14395837      -0.00520882 </v>
   <v>      -0.41894899      -0.08733669      -0.05068584 </v>
   <v>       0.27349509       0.18413485      -0.04141938 </v>
   <v>       0.25437203      -0.14502392       0.00204166 </v>
   <v>      -0.08531767       0.20517619       0.00750765 </v>
   <v>       0.27331443      -0.18210885       0.04273286 </v>
   <v>      -0.41957631       0.08407250       0.04958506 </v>
   <v>      -0.08205559      -0.20549869      -0.00704794 </v>
   <v>       0.27856171       0.34931388       0.20350495 </v>
   <v>       1.15324365       1.86582543      -0.01687871 </v>
   <v>       1.15018152      -1.85704411       0.00641059 </v>
   <v>      -1.20021846       0.44274426       0.10246970 </v>
   <v>      -1.20257979      -0.44242906      -0.12325449 </v>
   <v>       0.06558824      -0.41827536      -0.06735803 </v>
   <v>       0.04515562       0.41486060       0.05263556 </v>
   <v>       0.27511411      -0.34641277      -0.21463771 </v>
   <v>       0.27856171       0.34931388       0.20350495 </v>
   <v>       1.15324365       1.86582543      -0.01687871 </v>
   <v>       1.15018152      -1.85704411       0.00641059 </v>
   <v>      -1.20021846       0.44274426       0.10246970 </v>
   <v>      -1.20257979      -0.44242906      -0.12325449 </v>
   <v>       0.06558824      -0.41827536      -0.06735803 </v>
   <v>       0.04515562       0.41486060       0.05263556 </v>
   <v>       0.27511411      -0.34641277      -0.21463771 </v>
  </varray>
  <varray name="stress" >
   <v>       8.08518769      -0.12377320      -0.02723641 </v>
   <v>      -0.12377334       8.05766498       1.31354371 </v>
   <v>      -0.02723617       1.31354342       2.84513568 </v>
  </varray>
  <energy>
   <i name="e_fr_energy">   -305.58703772 </i>
   <i name="e_wo_entrp">   -305.58703772 </i>
   <i name="e_0_energy">      0.00000000 </i>
  </energy>
  <time name="totalsc">  561.96  566.95</time>
 </calculation>
 <calculation>
  <scstep>
   <time name="dav">   43.38   43.78</time>
   <time name="total">   43.88   44.28</time>
   <energy>
    <i name="alphaZ">   1069.63327788 </i>
    <i name="ewald"> -30763.45979078 </i>
    <i name="hartreedc"> -12760.16693694 </i>
    <i name="XCdc">   1342.20801768 </i>
    <i name="pawpsdc">  44045.62458827 </i>
    <i name="pawaedc"> -43442.84914499 </i>
    <i name="eentropy">      0.00000000 </i>
    <i name="bandstr">  -4190.41205062 </i>
    <i name="atom">  44408.54722957 </i>
    <i name="e_fr_energy">   -290.87480992 </i>
    <i name="e_wo_entrp">   -290.87480992 </i>
    <i name="e_0_energy">   -290.87480992 </i>
   </energy>
  </scstep>
  <scstep>
   <time name="dav">   45.87   45.96</time>
   <time name="total">   46.38   46.48</time>
   <energy>
    <i name="e_fr_energy">   -292.89189224 </i>
    <i name="e_wo_entrp">   -292.89189224 </i>
    <i name="e_0_energy">   -292.89189224 </i>
   </energy>
  </scstep>
  <scstep>
   <time name="dav">   61.70   62.30</time>
   <time name="total">   62.21   62.84</time>
   <energy>
    <i name="e_fr_energy">   -292.85490224 </i>
    <i name="e_wo_entrp">   -292.85490224 </i>
    <i name="e_0_energy">   -292.85490224 </i>
   </energy>
  </scstep>
  <scstep>
   <time name="dav">   49.30   49.72</time>
   <time name="total">   49.80   50.24</time>
   <energy>
    <i name="e_fr_energy">   -292.80922072 </i>
    <i name="e_wo_entrp">   -292.80922072 </i>
    <i name="e_0_energy">   -292.80922072 </i>
   </energy>
  </scstep>
  <scstep>
   <time name="dav">   49.74   49.92</time>
   <time name="total">   50.25   50.45</time>
   <energy>
    <i name="e_fr_energy">   -292.78077723 </i>
    <i name="e_wo_entrp">   -292.78077723 </i>
    <i name="e_0_energy">   -292.78077723 </i>
   </energy>
  </scstep>
  <scstep>
   <time name="dav">   53.54   53.85</time>
   <time name="total">   54.06   54.40</time>
   <energy>
    <i name="e_fr_energy">   -292.77929972 </i>
    <i name="e_wo_entrp">   -292.77929972 </i>
    <i name="e_0_energy">   -292.77929972 </i>
   </energy>
  </scstep>
  <scstep>
   <time name="dav">   54.51   54.66</time>
   <time name="total">   55.04   55.21</time>
   <energy>
    <i name="e_fr_energy">   -292.77947375 </i>
    <i name="e_wo_entrp">   -292.77947375 </i>
    <i name="e_0_energy">   -292.77947375 </i>
   </energy>
  </scstep>
  <scstep>
   <time name="dav">   49.49   49.65</time>
   <time name="total">   50.01   50.18</time>
   <energy>
    <i name="e_fr_energy">   -292.77932830 </i>
    <i name="e_wo_entrp">   -292.77932830 </i>
    <i name="e_0_energy">   -292.77932830 </i>
   </energy>
  </scstep>
  <scstep>
   <time name="dav">   57.72   58.01</time>
   <time name="total">   58.23   58.54</time>
   <energy>
    <i name="e_fr_energy">   -292.77929240 </i>
    <i name="e_wo_entrp">   -292.77929240 </i>
    <i name="e_0_energy">   -292.77929240 </i>
   </energy>
  </scstep>
  <scstep>
   <time name="dav">   47.23   47.63</time>
   <time name="total">   47.73   48.15</time>
   <energy>
    <i name="e_fr_energy">   -292.77929844 </i>
    <i name="e_wo_entrp">   -292.77929844 </i>
    <i name="e_0_energy">   -292.77929844 </i>
   </energy>
  </scstep>
  <scstep>
   <time name="dav">   51.00   51.36</time>
   <time name="total">   51.51   51.88</time>
   <energy>
    <i name="e_fr_energy">   -292.77930315 </i>
    <i name="e_wo_entrp">   -292.77930315 </i>
    <i name="e_0_energy">   -292.77930315 </i>
   </energy>
  </scstep>
  <scstep>
   <time name="dav">   40.92   41.45</time>
   <time name="total">   41.43   41.97</time>
   <energy>
    <i name="e_fr_energy">   -292.77930578 </i>
    <i name="e_wo_entrp">   -292.77930578 </i>
    <i name="e_0_energy">   -292.77930578 </i>
   </energy>
  </scstep>
  <scstep>
   <time name="dav">   39.19   39.30</time>
   <time name="total">   39.71   39.84</time>
   <energy>
    <i name="e_fr_energy">   -292.77930733 </i>
    <i name="e_wo_entrp">   -292.77930733 </i>
    <i name="e_0_energy">   -292.77930733 </i>
   </energy>
  </scstep>
  <scstep>
   <time name="dav">   29.43   29.73</time>
   <time name="total">   29.48   29.80</time>
   <energy>
    <i name="alphaZ">   1069.63327788 </i>
    <i name="ewald"> -30763.45979078 </i>
    <i name="hartreedc"> -12827.20200150 </i>
    <i name="XCdc">   1345.33269646 </i>
    <i name="pawpsdc">  43684.34274293 </i>
    <i name="pawaedc"> -43075.94105804 </i>
    <i name="eentropy">      0.00000000 </i>
    <i name="bandstr">  -4134.03240404 </i>
    <i name="atom">  44408.54722957 </i>
    <i name="e_fr_energy">   -292.77930751 </i>
    <i name="e_wo_entrp">   -292.77930751 </i>
    <i name="e_0_energy">   -292.77930751 </i>
   </energy>
  </scstep>
  <structure>
   <crystal>
    <varray name="basis" >
     <v>      11.15422793      -0.00215328      -0.00018804 </v>
     <v>      -0.00184338       9.53574570       0.00643806 </v>
     <v>      -0.00018850       0.00758578      11.22593867 </v>
    </varray>
    <i name="volume">   1194.03381436 </i>
    <varray name="rec_basis" >
     <v>       0.08965211       0.00001733       0.00000149 </v>
     <v>       0.00002024       0.10486862      -0.00007086 </v>
     <v>       0.00000149      -0.00006014       0.08907945 </v>
    </varray>
   </crystal>
   <varray name="positions" >
    <v>       0.36646248       0.00013311       0.43692974 </v>
    <v>       0.36310370       0.00017074       0.18693265 </v>
    <v>       0.62152507       0.99984325       0.43694141 </v>
    <v>       0.88574957       0.00013188       0.18695382 </v>
    <v>       0.36646248       0.00013311       0.93692974 </v>
    <v>       0.36310370       0.00017074       0.68693265 </v>
    <v>       0.62152507       0.99984325       0.93694141 </v>
    <v>       0.88574957       0.00013188       0.68695382 </v>
    <v>       0.88801327       0.00018254       0.43713756 </v>
    <v>       0.62273215       0.99985170       0.18714077 </v>
    <v>       0.88801327       0.00018254       0.93713756 </v>
    <v>       0.62273215       0.99985170       0.68714077 </v>
    <v>       0.00696905       0.29194169       0.06335268 </v>
    <v>       0.24640409       0.70850218       0.06278759 </v>
    <v>       0.24626460       0.29148697       0.31278936 </v>
    <v>       0.49364052       0.69792613       0.31325674 </v>
    <v>       0.49379719       0.30212784       0.06229767 </v>
    <v>       0.75284149       0.69164359       0.06278501 </v>
    <v>       0.75261882       0.30835596       0.31276690 </v>
    <v>       0.00683410       0.70801723       0.31219794 </v>
    <v>       0.00696905       0.29194169       0.56335268 </v>
    <v>       0.24640409       0.70850218       0.56278759 </v>
    <v>       0.24626460       0.29148697       0.81278936 </v>
    <v>       0.49364052       0.69792613       0.81325674 </v>
    <v>       0.49379719       0.30212784       0.56229767 </v>
    <v>       0.75284149       0.69164359       0.56278501 </v>
    <v>       0.75261882       0.30835596       0.81276690 </v>
    <v>       0.00683410       0.70801723       0.81219794 </v>
    <v>       0.25327609       0.32906000       0.06282154 </v>
    <v>      -0.00558744       0.67193554       0.06239433 </v>
    <v>       0.50434011       0.32793234       0.31241399 </v>
    <v>       0.25318989       0.67092961       0.31286229 </v>
    <v>       0.74826923       0.32740265       0.06293264 </v>
    <v>       0.50444877       0.67208555       0.06332157 </v>
    <v>       0.99431256       0.32803469       0.31330993 </v>
    <v>       0.74819189       0.67258872       0.31279961 </v>
    <v>       0.25327609       0.32906000       0.56282154 </v>
    <v>      -0.00558744       0.67193554       0.56239433 </v>
    <v>       0.50434011       0.32793234       0.81241399 </v>
    <v>       0.25318989       0.67092961       0.81286229 </v>
    <v>       0.74826923       0.32740265       0.56293264 </v>
    <v>       0.50444877       0.67208555       0.56332157 </v>
    <v>       0.99431256       0.32803469       0.81330993 </v>
    <v>       0.74819189       0.67258872       0.81279961 </v>
    <v>       0.50684922       0.07345968       0.06590058 </v>
    <v>       0.26219263       0.92167955       0.06240671 </v>
    <v>       0.26238099       0.07837430       0.31249552 </v>
    <v>      -0.01612132       0.92047209       0.31512235 </v>
    <v>       0.98362707       0.07952174       0.05967322 </v>
    <v>       0.74829471       0.93065305       0.06229931 </v>
    <v>       0.74830556       0.06934327       0.31238042 </v>
    <v>       0.50707392       0.92657242       0.30889615 </v>
    <v>       0.50684922       0.07345968       0.56590058 </v>
    <v>       0.26219263       0.92167955       0.56240671 </v>
    <v>       0.26238099       0.07837430       0.81249552 </v>
    <v>      -0.01612132       0.92047209       0.81512235 </v>
    <v>       0.98362707       0.07952174       0.55967322 </v>
    <v>       0.74829471       0.93065305       0.56229931 </v>
    <v>       0.74830556       0.06934327       0.81238042 </v>
    <v>       0.50707392       0.92657242       0.80889615 </v>
   </varray>
  </structure>
  <varray name="forces" >
   <v>      -0.41607717      -0.00950388       0.01416564 </v>
   <v>      -0.51338398       0.00633190       0.00912566 </v>
   <v>      -0.05748337       0.00345194       0.01231556 </v>
   <v>       0.33695295      -0.01176364       0.01866850 </v>
   <v>      -0.41607717      -0.00950388       0.01416564 </v>
   <v>      -0.51338398       0.00633190       0.00912566 </v>
   <v>      -0.05748337       0.00345194       0.01231556 </v>
   <v>       0.33695295      -0.01176364       0.01866850 </v>
   <v>      -0.93459190       0.00276558       0.00297065 </v>
   <v>       0.41628582       0.00228495       0.00561026 </v>
   <v>      -0.93459190       0.00276558       0.00297065 </v>
   <v>       0.41628582       0.00228495       0.00561026 </v>
   <v>      -0.12283917      -0.27156402       0.02175377 </v>
   <v>       0.18500439       1.18709048      -0.00364586 </v>
   <v>       0.19305033      -1.18230168      -0.00525550 </v>
   <v>       0.29105037       0.54679261      -0.02332138 </v>
   <v>       0.28386798      -0.54806840       0.01357482 </v>
   <v>      -0.22199098       0.53636119      -0.00372624 </v>
   <v>      -0.21527993      -0.53577353      -0.00845886 </v>
   <v>      -0.11728113       0.27545125      -0.02835382 </v>
   <v>      -0.12283917      -0.27156402       0.02175377 </v>
   <v>       0.18500439       1.18709048      -0.00364586 </v>
   <v>       0.19305033      -1.18230168      -0.00525550 </v>
   <v>       0.29105037       0.54679261      -0.02332138 </v>
   <v>       0.28386798      -0.54806840       0.01357482 </v>
   <v>      -0.22199098       0.53636119      -0.00372624 </v>
   <v>      -0.21527993      -0.53577353      -0.00845886 </v>
   <v>      -0.11728113       0.27545125      -0.02835382 </v>
   <v>      -0.04682912       0.17209425      -0.00622116 </v>
   <v>       0.05525349      -0.10300043      -0.04243034 </v>
   <v>      -0.02818310       0.25891977      -0.02821399 </v>
   <v>      -0.04560118      -0.17290894       0.00288596 </v>
   <v>       0.04863972       0.31943579       0.01001613 </v>
   <v>      -0.03005172      -0.25635544       0.02867284 </v>
   <v>       0.05436039       0.09944813       0.04117551 </v>
   <v>       0.05151412      -0.31972407      -0.01047277 </v>
   <v>      -0.04682912       0.17209425      -0.00622116 </v>
   <v>       0.05525349      -0.10300043      -0.04243034 </v>
   <v>      -0.02818310       0.25891977      -0.02821399 </v>
   <v>      -0.04560118      -0.17290894       0.00288596 </v>
   <v>       0.04863972       0.31943579       0.01001613 </v>
   <v>      -0.03005172      -0.25635544       0.02867284 </v>
   <v>       0.05436039       0.09944813       0.04117551 </v>
   <v>       0.05151412      -0.31972407      -0.01047277 </v>
   <v>       0.00147893       0.87368214       0.01295062 </v>
   <v>       0.55761142      -1.09032521      -0.04643097 </v>
   <v>       0.54934745       1.08783694       0.03132780 </v>
   <v>      -0.27085378      -0.63797537      -0.37903963 </v>
   <v>      -0.25993892       0.64342300       0.36735890 </v>
   <v>       0.13427493      -0.95397544      -0.06355552 </v>
   <v>       0.12944871       0.95292098       0.06664748 </v>
   <v>      -0.00775555      -0.87505086      -0.01009406 </v>
   <v>       0.00147893       0.87368214       0.01295062 </v>
   <v>       0.55761142      -1.09032521      -0.04643097 </v>
   <v>       0.54934745       1.08783694       0.03132780 </v>
   <v>      -0.27085378      -0.63797537      -0.37903963 </v>
   <v>      -0.25993892       0.64342300       0.36735890 </v>
   <v>       0.13427493      -0.95397544      -0.06355552 </v>
   <v>       0.12944871       0.95292098       0.06664748 </v>
   <v>      -0.00775555      -0.87505086      -0.01009406 </v>
  </varray>
  <varray name="stress" >
   <v>      11.48639071       0.01850546       0.03776307 </v>
   <v>       0.01850532     -39.01289227       2.73991736 </v>
   <v>       0.03776271       2.73991724       1.81409753 </v>
  </varray>
  <energy>
   <i name="e_fr_energy">   -306.43945388 </i>
   <i name="e_wo_entrp">   -306.43945388 </i>
   <i name="e_0_energy">      0.00000000 </i>
  </energy>
  <time name="totalsc">  754.46  759.73</time>
 </calculation>
 <calculation>
  <scstep>
   <time name="dav">   38.59   39.15</time>
   <time name="total">   39.08   39.65</time>
   <energy>
    <i name="alphaZ">   1071.10124122 </i>
    <i name="ewald"> -30756.87291172 </i>
    <i name="hartreedc"> -12852.44623552 </i>
    <i name="XCdc">   1346.23269688 </i>
    <i name="pawpsdc">  43684.45341076 </i>
    <i name="pawaedc"> -43076.05034885 </i>
    <i name="eentropy">      0.00000000 </i>
    <i name="bandstr">  -4117.72250256 </i>
    <i name="atom">  44408.54722957 </i>
    <i name="e_fr_energy">   -292.75742020 </i>
    <i name="e_wo_entrp">   -292.75742020 </i>
    <i name="e_0_energy">   -292.75742020 </i>
   </energy>
  </scstep>
  <scstep>
   <time name="dav">   43.53   43.89</time>
   <time name="total">   44.03   44.44</time>
   <energy>
    <i name="e_fr_energy">   -292.82288939 </i>
    <i name="e_wo_entrp">   -292.82288939 </i>
    <i name="e_0_energy">   -292.82288939 </i>
   </energy>
  </scstep>
  <scstep>
   <time name="dav">   53.41   53.96</time>
   <time name="total">   53.93   54.57</time>
   <energy>
    <i name="e_fr_energy">   -292.82181266 </i>
    <i name="e_wo_entrp">   -292.82181266 </i>
    <i name="e_0_energy">   -292.82181266 </i>
   </energy>
  </scstep>
  <scstep>
   <time name="dav">   51.72   52.65</time>
   <time name="total">   52.22   53.18</time>
   <energy>
    <i name="e_fr_energy">   -292.81947802 </i>
    <i name="e_wo_entrp">   -292.81947802 </i>
    <i name="e_0_energy">   -292.81947802 </i>
   </energy>
  </scstep>
  <scstep>
   <time name="dav">   48.76   49.12</time>
   <time name="total">   49.26   49.64</time>
   <energy>
    <i name="e_fr_energy">   -292.81886696 </i>
    <i name="e_wo_entrp">   -292.81886696 </i>
    <i name="e_0_energy">   -292.81886696 </i>
   </energy>
  </scstep>
  <scstep>
   <time name="dav">   50.22   50.30</time>
   <time name="total">   50.76   50.86</time>
   <energy>
    <i name="e_fr_energy">   -292.81890582 </i>
    <i name="e_wo_entrp">   -292.81890582 </i>
    <i name="e_0_energy">   -292.81890582 </i>
   </energy>
  </scstep>
  <scstep>
   <time name="dav">   62.35   62.58</time>
[...]
       <r>    8.6791    0.0000 </r>
       <r>    8.7495    0.0000 </r>
       <r>    8.7495    0.0000 </r>
       <r>    8.7852    0.0000 </r>
       <r>    8.7852    0.0000 </r>
       <r>    8.9267    0.0000 </r>
       <r>    8.9267    0.0000 </r>
      </set>
     </set>
    </set>
   </array>
  </eigenvalues>
  <separator name="orbital magnetization" >
   <v name="MAGDIPOLOUT">      0.00000000      0.00000000      0.00000000</v>
  </separator>
  <dos>
   <i name="efermi">      4.09369423 </i>
   <total>
    <array>
     <dimension dim="1">gridpoints</dimension>
     <dimension dim="2">spin</dimension>
     <field>energy</field>
     <field>total</field>
     <field>integrated</field>
     <set>
      <set comment="spin 1">
       <r>   -42.5695     0.0000     0.0000 </r>
       <r>   -42.3875     0.0000     0.0000 </r>
       <r>   -42.2056     0.0000     0.0000 </r>
       <r>   -42.0237     0.0000     0.0000 </r>
       <r>   -41.8418     0.0000     0.0000 </r>
       <r>   -41.6599     0.0000     0.0000 </r>
       <r>   -41.4779     0.0000     0.0000 </r>
       <r>   -41.2960     0.0000     0.0000 </r>
       <r>   -41.1141     0.0000     0.0000 </r>
       <r>   -40.9322     0.0000     0.0000 </r>
       <r>   -40.7502     0.0000     0.0000 </r>
       <r>   -40.5683     0.0000     0.0000 </r>
       <r>   -40.3864     0.0000     0.0000 </r>
       <r>   -40.2045     0.0000     0.0000 </r>
       <r>   -40.0225     0.0000     4.0000 </r>
       <r>   -39.8406     0.0000     4.0000 </r>
       <r>   -39.6587     0.0000     8.0000 </r>
       <r>   -39.4768     0.0000     8.0000 </r>
       <r>   -39.2949     0.0000    12.0000 </r>
       <r>   -39.1129     0.0000    16.0000 </r>
       <r>   -38.9310     0.0000    16.0000 </r>
       <r>   -38.7491     0.0000    16.0000 </r>
       <r>   -38.5672     0.0000    16.0000 </r>
       <r>   -38.3852     0.0000    16.0000 </r>
       <r>   -38.2033     0.0000    16.0000 </r>
       <r>   -38.0214     0.0000    16.0000 </r>
       <r>   -37.8395     0.0000    16.0000 </r>
       <r>   -37.6576     0.0000    16.0000 </r>
       <r>   -37.4756     0.0000    16.0000 </r>
       <r>   -37.2937     0.0000    16.0000 </r>
       <r>   -37.1118     0.0000    16.0000 </r>
       <r>   -36.9299     0.0000    16.0000 </r>
       <r>   -36.7479     0.0000    16.0000 </r>
       <r>   -36.5660     0.0000    16.0000 </r>
       <r>   -36.3841     0.0000    16.0000 </r>
       <r>   -36.2022     0.0000    16.0000 </r>
       <r>   -36.0202     0.0000    16.0000 </r>
       <r>   -35.8383     0.0000    16.0000 </r>
       <r>   -35.6564     0.0000    16.0000 </r>
       <r>   -35.4745     0.0000    16.0000 </r>
       <r>   -35.2926     0.0000    16.0000 </r>
       <r>   -35.1106     0.0000    16.0000 </r>
       <r>   -34.9287     0.0000    16.0000 </r>
       <r>   -34.7468     0.0000    16.0000 </r>
       <r>   -34.5649     0.0000    16.0000 </r>
       <r>   -34.3829     0.0000    16.0000 </r>
       <r>   -34.2010     0.0000    16.0000 </r>
       <r>   -34.0191     0.0000    16.0000 </r>
       <r>   -33.8372     0.0000    16.0000 </r>
       <r>   -33.6553     0.0000    16.0000 </r>
       <r>   -33.4733     0.0000    16.0000 </r>
       <r>   -33.2914     0.0000    16.0000 </r>
       <r>   -33.1095     0.0000    16.0000 </r>
       <r>   -32.9276     0.0000    16.0000 </r>
       <r>   -32.7456     0.0000    16.0000 </r>
       <r>   -32.5637     0.0000    16.0000 </r>
       <r>   -32.3818     0.0000    16.0000 </r>
       <r>   -32.1999     0.0000    16.0000 </r>
       <r>   -32.0180     0.0000    16.0000 </r>
       <r>   -31.8360     0.0000    16.0000 </r>
       <r>   -31.6541     0.0000    16.0000 </r>
       <r>   -31.4722     0.0000    16.0000 </r>
       <r>   -31.2903     0.0000    16.0000 </r>
       <r>   -31.1083     0.0000    16.0000 </r>
       <r>   -30.9264     0.0000    16.0000 </r>
       <r>   -30.7445     0.0000    16.0000 </r>
       <r>   -30.5626     0.0000    16.0000 </r>
       <r>   -30.3806     0.0000    16.0000 </r>
       <r>   -30.1987     0.0000    16.0000 </r>
       <r>   -30.0168     0.0000    16.0000 </r>
       <r>   -29.8349     0.0000    16.0000 </r>
       <r>   -29.6530     0.0000    16.0000 </r>
       <r>   -29.4710     0.0000    16.0000 </r>
       <r>   -29.2891     0.0000    16.0000 </r>
       <r>   -29.1072     0.0000    16.0000 </r>
       <r>   -28.9253     0.0000    16.0000 </r>
       <r>   -28.7433     0.0000    16.0000 </r>
       <r>   -28.5614     0.0000    16.0000 </r>
       <r>   -28.3795     0.0000    16.0000 </r>
       <r>   -28.1976     0.0000    16.0000 </r>
       <r>   -28.0157     0.0000    16.0000 </r>
       <r>   -27.8337     0.0000    16.0000 </r>
       <r>   -27.6518     0.0000    16.0000 </r>
       <r>   -27.4699     0.0000    16.0000 </r>
       <r>   -27.2880     0.0000    16.0000 </r>
       <r>   -27.1060     0.0000    16.0000 </r>
       <r>   -26.9241     0.0000    16.0000 </r>
       <r>   -26.7422     0.0000    16.0000 </r>
       <r>   -26.5603     0.0000    16.0000 </r>
       <r>   -26.3783     0.0000    16.0000 </r>
       <r>   -26.1964     0.0000    16.0000 </r>
       <r>   -26.0145     0.0000    16.0000 </r>
       <r>   -25.8326     0.0000    16.0000 </r>
       <r>   -25.6507     0.0000    16.0000 </r>
       <r>   -25.4687     0.0000    16.0000 </r>
       <r>   -25.2868     0.0000    16.0000 </r>
       <r>   -25.1049     0.0000    16.0000 </r>
       <r>   -24.9230     0.0000    16.0000 </r>
       <r>   -24.7410     0.0000    16.0000 </r>
       <r>   -24.5591     0.0000    16.0000 </r>
       <r>   -24.3772     0.0000    16.0000 </r>
       <r>   -24.1953     0.0000    16.0000 </r>
       <r>   -24.0134     0.0000    16.0000 </r>
       <r>   -23.8314     0.0000    16.0000 </r>
       <r>   -23.6495     0.0000    16.0000 </r>
       <r>   -23.4676     0.0000    16.0000 </r>
       <r>   -23.2857     0.0000    16.0000 </r>
       <r>   -23.1037     0.0000    16.0000 </r>
       <r>   -22.9218     0.0000    16.0000 </r>
       <r>   -22.7399     0.0000    16.0000 </r>
       <r>   -22.5580     0.0000    16.0000 </r>
       <r>   -22.3761     0.0000    16.0000 </r>
       <r>   -22.1941     0.0000    16.0000 </r>
       <r>   -22.0122     0.0000    16.0000 </r>
       <r>   -21.8303     0.0000    16.0000 </r>
       <r>   -21.6484     0.0000    16.0000 </r>
       <r>   -21.4664     0.0000    16.0000 </r>
       <r>   -21.2845     0.0000    16.0000 </r>
       <r>   -21.1026     0.0000    16.0000 </r>
       <r>   -20.9207     0.0000    16.0000 </r>
       <r>   -20.7387     0.0000    16.0000 </r>
       <r>   -20.5568     0.0000    16.0000 </r>
       <r>   -20.3749     0.0000    16.0000 </r>
       <r>   -20.1930     0.0000    16.0000 </r>
       <r>   -20.0111     0.0000    16.0000 </r>
       <r>   -19.8291     0.0000    16.0000 </r>
       <r>   -19.6472     0.0000    16.0000 </r>
       <r>   -19.4653     0.0000    16.0000 </r>
       <r>   -19.2834     0.0000    16.0000 </r>
       <r>   -19.1014     0.0000    16.0000 </r>
       <r>   -18.9195     0.0000    40.0000 </r>
       <r>   -18.7376     0.0000   104.0000 </r>
       <r>   -18.5557     0.0000   136.0000 </r>
       <r>   -18.3738     0.0000   160.0000 </r>
       <r>   -18.1918     0.0000   176.0000 </r>
       <r>   -18.0099     0.0000   176.0000 </r>
       <r>   -17.8280     0.0000   176.0000 </r>
       <r>   -17.6461     0.0000   176.0000 </r>
       <r>   -17.4641     0.0000   176.0000 </r>
       <r>   -17.2822     0.0000   176.0000 </r>
       <r>   -17.1003     0.0000   176.0000 </r>
       <r>   -16.9184     0.0000   176.0000 </r>
       <r>   -16.7364     0.0000   176.0000 </r>
       <r>   -16.5545     0.0000   176.0000 </r>
       <r>   -16.3726     0.0000   176.0000 </r>
       <r>   -16.1907     0.0000   176.0000 </r>
       <r>   -16.0088     0.0000   176.0000 </r>
       <r>   -15.8268     0.0000   176.0000 </r>
       <r>   -15.6449     0.0000   176.0000 </r>
       <r>   -15.4630     0.0000   176.0000 </r>
       <r>   -15.2811     0.0000   176.0000 </r>
       <r>   -15.0991     0.0000   176.0000 </r>
       <r>   -14.9172     0.0000   176.0000 </r>
       <r>   -14.7353     0.0000   176.0000 </r>
       <r>   -14.5534     0.0000   176.0000 </r>
       <r>   -14.3715     0.0000   176.0000 </r>
       <r>   -14.1895     0.0000   176.0000 </r>
       <r>   -14.0076     0.0000   176.0000 </r>
       <r>   -13.8257     0.0000   176.0000 </r>
       <r>   -13.6438     0.0000   176.0000 </r>
       <r>   -13.4618     0.0000   176.0000 </r>
       <r>   -13.2799    26.5185   180.6208 </r>
       <r>   -13.0980     0.0000   184.0000 </r>
       <r>   -12.9161   244.3942   189.9976 </r>
       <r>   -12.7342     0.0000   200.0000 </r>
       <r>   -12.5522     0.0000   200.0000 </r>
       <r>   -12.3703     0.0000   208.0000 </r>
       <r>   -12.1884     0.0000   208.0000 </r>
       <r>   -12.0065     0.0000   208.0000 </r>
       <r>   -11.8245     0.0000   208.0000 </r>
       <r>   -11.6426     0.0000   208.0000 </r>
       <r>   -11.4607     0.0000   208.0000 </r>
       <r>   -11.2788     0.0000   208.0000 </r>
       <r>   -11.0968     0.0000   208.0000 </r>
       <r>   -10.9149     0.0000   208.0000 </r>
       <r>   -10.7330     0.0000   208.0000 </r>
       <r>   -10.5511     0.0000   208.0000 </r>
       <r>   -10.3692     0.0000   208.0000 </r>
       <r>   -10.1872     0.0000   208.0000 </r>
       <r>   -10.0053     0.0000   208.0000 </r>
       <r>    -9.8234     0.0000   208.0000 </r>
       <r>    -9.6415     0.0000   208.0000 </r>
       <r>    -9.4595     9.1492   209.1827 </r>
       <r>    -9.2776     6.4605   210.6063 </r>
       <r>    -9.0957     4.7261   211.7221 </r>
       <r>    -8.9138     6.3458   212.0629 </r>
       <r>    -8.7319    16.9614   216.2272 </r>
       <r>    -8.5499     0.0000   220.0000 </r>
       <r>    -8.3680    24.3019   222.6065 </r>
       <r>    -8.1861    20.3006   224.3704 </r>
       <r>    -8.0042    36.7116   231.7872 </r>
       <r>    -7.8222    11.2080   235.9197 </r>
       <r>    -7.6403    25.6232   238.6568 </r>
       <r>    -7.4584     0.0000   240.0000 </r>
       <r>    -7.2765     0.0000   240.0000 </r>
       <r>    -7.0945     0.0000   240.0000 </r>
       <r>    -6.9126     0.0000   240.0000 </r>
       <r>    -6.7307     0.0000   240.0000 </r>
       <r>    -6.5488     0.0000   240.0000 </r>
       <r>    -6.3669    24.6962   240.9970 </r>
       <r>    -6.1849    16.9004   246.2249 </r>
       <r>    -6.0030     1.6734   247.9955 </r>
       <r>    -5.8211    37.4880   252.3086 </r>
       <r>    -5.6392    15.4837   256.1629 </r>
       <r>    -5.4572    17.3250   260.3450 </r>
       <r>    -5.2753    12.0947   262.9715 </r>
       <r>    -5.0934     4.0742   264.2283 </r>
       <r>    -4.9115    15.0079   266.1420 </r>
       <r>    -4.7296     5.7301   267.7770 </r>
       <r>    -4.5476     5.5281   268.6910 </r>
       <r>    -4.3657    10.4493   270.0840 </r>
       <r>    -4.1838     3.1865   271.3876 </r>
       <r>    -4.0019     1.6710   271.8292 </r>
       <r>    -3.8199     0.1859   271.9963 </r>
       <r>    -3.6380     0.0000   272.0000 </r>
       <r>    -3.4561     0.0000   272.0000 </r>
       <r>    -3.2742     0.0000   272.0000 </r>
       <r>    -3.0923     0.0000   272.0000 </r>
       <r>    -2.9103     0.0000   272.0000 </r>
       <r>    -2.7284     0.0000   272.0000 </r>
       <r>    -2.5465     0.0000   272.0000 </r>
       <r>    -2.3646     0.0000   272.0000 </r>
       <r>    -2.1826     0.0000   272.0000 </r>
       <r>    -2.0007     0.0000   272.0000 </r>
       <r>    -1.8188     0.0000   272.0000 </r>
       <r>    -1.6369     0.0000   272.0000 </r>
       <r>    -1.4549     1.9541   272.0535 </r>
       <r>    -1.2730     6.4889   272.8847 </r>
       <r>    -1.0911     7.4890   274.2909 </r>
       <r>    -0.9092     8.5177   275.6241 </r>
       <r>    -0.7273    13.6765   277.7225 </r>
       <r>    -0.5453    27.1432   280.5710 </r>
       <r>    -0.3634    32.0063   285.7859 </r>
       <r>    -0.1815    36.4999   291.3587 </r>
       <r>     0.0004    46.6768   298.3735 </r>
       <r>     0.1824    35.0745   305.8992 </r>
       <r>     0.3643    37.4361   314.1733 </r>
       <r>     0.5462    28.4923   319.1541 </r>
       <r>     0.7281    33.4648   325.5495 </r>
       <r>     0.9100    37.0728   332.9677 </r>
       <r>     1.0920    42.6768   341.1213 </r>
       <r>     1.2739    61.6406   350.3042 </r>
       <r>     1.4558    49.9151   359.2074 </r>
       <r>     1.6377    39.5937   366.8589 </r>
       <r>     1.8197    57.2667   374.6063 </r>
       <r>     2.0016    47.2738   382.7346 </r>
       <r>     2.1835    48.3979   391.1378 </r>
       <r>     2.3654    55.6158   401.8892 </r>
       <r>     2.5474    64.4463   411.9167 </r>
       <r>     2.7293    54.6232   421.5436 </r>
       <r>     2.9112    73.7621   432.8515 </r>
       <r>     3.0931    43.3220   443.7644 </r>
       <r>     3.2750    42.0560   450.1758 </r>
       <r>     3.4570    29.6825   457.3051 </r>
       <r>     3.6389    15.8932   461.0557 </r>
       <r>     3.8208     7.9482   463.2233 </r>
       <r>     4.0027     0.9723   463.9782 </r>
       <r>     4.1847     0.0000   464.0000 </r>
       <r>     4.3666     0.0000   464.0000 </r>
       <r>     4.5485     0.0000   464.0000 </r>
       <r>     4.7304     0.0000   464.0000 </r>
       <r>     4.9123     0.0000   464.0000 </r>
       <r>     5.0943     0.1599   464.0015 </r>
       <r>     5.2762     9.1188   464.7891 </r>
       <r>     5.4581     9.3905   466.6497 </r>
       <r>     5.6400    22.2090   469.3109 </r>
       <r>     5.8220    19.8049   472.7786 </r>
       <r>     6.0039    13.4472   475.6540 </r>
       <r>     6.1858    13.5544   478.0748 </r>
       <r>     6.3677    16.0710   480.7144 </r>
       <r>     6.5496    19.2426   483.9367 </r>
       <r>     6.7316    22.0881   487.7009 </r>
       <r>     6.9135    23.5428   491.8800 </r>
       <r>     7.0954    17.0157   496.2016 </r>
       <r>     7.2773    39.6053   500.9775 </r>
       <r>     7.4593    17.3818   505.8741 </r>
       <r>     7.6412    19.9953   509.9735 </r>
       <r>     7.8231    35.1323   515.4014 </r>
       <r>     8.0050    29.3176   520.7906 </r>
       <r>     8.1870    39.6802   527.9820 </r>
       <r>     8.3689    24.0059   533.1735 </r>
       <r>     8.5508    30.1966   538.4228 </r>
       <r>     8.7327    38.0437   544.6432 </r>
       <r>     8.9146    21.2470   549.8400 </r>
       <r>     9.0966    31.3050   554.6731 </r>
       <r>     9.2785    12.0121   558.6472 </r>
       <r>     9.4604     2.5024   559.9267 </r>
       <r>     9.6423     0.0000   560.0000 </r>
       <r>     9.8243     0.0000   560.0000 </r>
       <r>    10.0062     0.0000   560.0000 </r>
       <r>    10.1881     0.0000   560.0000 </r>
       <r>    10.3700     0.0000   560.0000 </r>
       <r>    10.5519     0.0000   560.0000 </r>
       <r>    10.7339     0.0000   560.0000 </r>
       <r>    10.9158     0.0000   560.0000 </r>
       <r>    11.0977     0.0000   560.0000 </r>
       <r>    11.2796     0.0000   560.0000 </r>
       <r>    11.4616     0.0000   560.0000 </r>
       <r>    11.6435     0.0000   560.0000 </r>
       <r>    11.8254     0.0000   560.0000 </r>
       <r>    12.0073     0.0000   560.0000 </r>
      </set>
     </set>
    </array>
   </total>
  </dos>
 </calculation>
 <structure name="finalpos" >
  <crystal>
   <varray name="basis" >
    <v>      11.27830837      -0.00027265       0.00093901 </v>
    <v>      -0.00033150       9.57154308      -0.03500130 </v>
    <v>       0.00093801      -0.04190830      11.19913118 </v>
   </varray>
   <i name="volume">   1208.93877849 </i>
   <varray name="rec_basis" >
    <v>       0.08866578       0.00000304      -0.00000742 </v>
    <v>       0.00000249       0.10447779       0.00039097 </v>
    <v>      -0.00000743       0.00032653       0.08929386 </v>
   </varray>
  </crystal>
  <varray name="positions" >
   <v>       0.36363178      -0.00062951       0.43679133 </v>
   <v>       0.36448608       0.00056585       0.18692464 </v>
   <v>       0.61290578       0.00011260       0.43757950 </v>
   <v>       0.89843986      -0.00036644       0.18726004 </v>
   <v>       0.36363178      -0.00062951       0.93679133 </v>
   <v>       0.36448608       0.00056585       0.68692464 </v>
   <v>       0.61290578       0.00011260       0.93757950 </v>
   <v>       0.89843986      -0.00036644       0.68726004 </v>
   <v>       0.85690551       0.00005643       0.43746377 </v>
   <v>       0.63052739      -0.00000631       0.18764788 </v>
   <v>       0.85690551       0.00005643       0.93746377 </v>
   <v>       0.63052739      -0.00000631       0.68764788 </v>
   <v>      -0.00101628       0.30414078       0.06028662 </v>
   <v>       0.25504773       0.70184920       0.06192405 </v>
   <v>       0.25502509       0.29821364       0.31322841 </v>
   <v>       0.49831298       0.69052674       0.31028432 </v>
   <v>       0.49832985       0.30948765       0.06506096 </v>
   <v>       0.75053076       0.68298040       0.06165475 </v>
   <v>       0.75047911       0.31708257       0.31366562 </v>
   <v>      -0.00101828       0.69582872       0.31492540 </v>
   <v>      -0.00101628       0.30414078       0.56028662 </v>
   <v>       0.25504773       0.70184920       0.56192405 </v>
   <v>       0.25502509       0.29821364       0.81322841 </v>
   <v>       0.49831298       0.69052674       0.81028432 </v>
   <v>       0.49832985       0.30948765       0.56506096 </v>
   <v>       0.75053076       0.68298040       0.56165475 </v>
   <v>       0.75047911       0.31708257       0.81366562 </v>
   <v>      -0.00101828       0.69582872       0.81492540 </v>
   <v>       0.25439554       0.33481235       0.06241767 </v>
   <v>      -0.00462110       0.66395941       0.06342173 </v>
   <v>       0.50395451       0.35641199       0.31077464 </v>
   <v>       0.25438331       0.66524525       0.31282733 </v>
   <v>       0.75084458       0.36060790       0.06151740 </v>
   <v>       0.50399769       0.64367793       0.06464769 </v>
   <v>       0.99534104       0.33621279       0.31186686 </v>
   <v>       0.75081997       0.63942792       0.31388486 </v>
   <v>       0.25439554       0.33481235       0.56241767 </v>
   <v>      -0.00462110       0.66395941       0.56342173 </v>
   <v>       0.50395451       0.35641199       0.81077464 </v>
   <v>       0.25438331       0.66524525       0.81282733 </v>
   <v>       0.75084458       0.36060790       0.56151740 </v>
   <v>       0.50399769       0.64367793       0.56464769 </v>
   <v>       0.99534104       0.33621279       0.81186686 </v>
   <v>       0.75081997       0.63942792       0.81388486 </v>
   <v>       0.52056612       0.08897323       0.07010757 </v>
   <v>       0.29399721       0.90563551       0.06157777 </v>
   <v>       0.29392492       0.09441905       0.31290765 </v>
   <v>      -0.04952602       0.90156302       0.31857697 </v>
   <v>       0.95057618       0.09839801       0.05635567 </v>
   <v>       0.73922371       0.91408529       0.05881505 </v>
   <v>       0.73901259       0.08601005       0.31653490 </v>
   <v>       0.52052238       0.91107797       0.30536897 </v>
   <v>       0.52056612       0.08897323       0.57010757 </v>
   <v>       0.29399721       0.90563551       0.56157777 </v>
   <v>       0.29392492       0.09441905       0.81290765 </v>
   <v>      -0.04952602       0.90156302       0.81857697 </v>
   <v>       0.95057618       0.09839801       0.55635567 </v>
   <v>       0.73922371       0.91408529       0.55881505 </v>
   <v>       0.73901259       0.08601005       0.81653490 </v>
   <v>       0.52052238       0.91107797       0.80536897 </v>
  </varray>
 </structure>
</modeling>
