<?xml version="1.0" encoding="ISO-8859-1"?>
<modeling>
 <generator>
  <i name="program" type="string">vasp </i>
  <i name="version" type="string">5.4.4.18Apr17-6-g9f103f2a35  </i>
  <i name="subversion" type="string">(build Jul 31 2017 11:33:29) complex            parallel </i>
  <i name="platform" type="string">LinuxIFC </i>
  <i name="date" type="string">2021 09 29 </i>
  <i name="time" type="string">01:43:52 </i>
 </generator>
 <incar>
  <i type="string" name="SYSTEM"> La2O2S</i>
  <i type="string" name="PREC">normal</i>
  <i type="int" name="NELMIN">     4</i>
  <i type="int" name="IBRION">     2</i>
  <i type="int" name="NFREE">    10</i>
  <i name="EDIFF">      0.00000100</i>
  <i name="EDIFFG">     -0.01000000</i>
  <i type="int" name="NSW">     1</i>
  <i type="int" name="ISIF">     2</i>
  <i name="ENCUT">    600.00000000</i>
  <i name="ENAUG">    900.00000000</i>
  <i type="int" name="ISMEAR">    -5</i>
  <i type="logical" name="LWAVE"> F  </i>
  <i type="logical" name="LCHARG"> F  </i>
  <v type="int" name="KPOINT_BSE">    -1     0     0     0</v>
 </incar>
 <structure name="primitive_cell" >
  <crystal>
   <varray name="basis" >
    <v>      11.17850000       0.00000000       0.00000000 </v>
    <v>       0.00000000       9.57460000       0.00000000 </v>
    <v>       0.00000000       0.00000000      11.18240000 </v>
   </varray>
   <i name="volume">   1196.84853820 </i>
   <varray name="rec_basis" >
    <v>       0.08945744       0.00000000       0.00000000 </v>
    <v>       0.00000000       0.10444301       0.00000000 </v>
    <v>       0.00000000       0.00000000       0.08942624 </v>
   </varray>
  </crystal>
  <varray name="positions" >
   <v>       0.37539000       0.00017000       0.43687000 </v>
   <v>      -0.49987000      -0.07798000       0.31246000 </v>
   <v>       0.25013000       0.07798000       0.31246000 </v>
   <v>       0.49987000       0.07798000      -0.43754000 </v>
   <v>       0.24987000      -0.07798000      -0.43754000 </v>
   <v>      -0.37461000      -0.00016000       0.43687000 </v>
   <v>       0.37461000       0.00017000       0.18687000 </v>
   <v>       0.37461000       0.00017000      -0.31313000 </v>
   <v>       0.49987000      -0.29519000       0.31282000 </v>
   <v>       0.24987000       0.29519000       0.31282000 </v>
   <v>      -0.49987000       0.29519000      -0.43719000 </v>
   <v>       0.25013000      -0.29519000      -0.43719000 </v>
   <v>       0.49995000       0.32677000       0.31286000 </v>
   <v>       0.24995000      -0.32677000       0.31286000 </v>
   <v>      -0.49995000      -0.32677000      -0.43714000 </v>
   <v>       0.25005000       0.32677000      -0.43714000 </v>
   <v>      -0.37539000      -0.00016000       0.18687000 </v>
   <v>      -0.37539000      -0.00016000      -0.31313000 </v>
   <v>       0.12461000      -0.00016000       0.18687000 </v>
   <v>       0.12461000      -0.00016000      -0.31313000 </v>
   <v>       0.49987000       0.07798000       0.06246000 </v>
   <v>      -0.24987000       0.07798000       0.31246000 </v>
   <v>      -0.25013000      -0.07798000      -0.43754000 </v>
   <v>       0.24987000      -0.07798000       0.06246000 </v>
   <v>       0.00013000      -0.07798000       0.31246000 </v>
   <v>      -0.49987000      -0.07798000      -0.18754000 </v>
   <v>      -0.00013000       0.07798000      -0.43754000 </v>
   <v>       0.25013000       0.07798000      -0.18754000 </v>
   <v>      -0.49987000       0.29519000       0.06281000 </v>
   <v>      -0.25013000       0.29519000       0.31282000 </v>
   <v>       0.25013000      -0.29519000       0.06281000 </v>
   <v>      -0.24987000      -0.29519000      -0.43719000 </v>
   <v>      -0.00013000      -0.29519000       0.31282000 </v>
   <v>       0.00013000       0.29519000      -0.43719000 </v>
   <v>       0.49987000      -0.29519000      -0.18718000 </v>
   <v>       0.24987000       0.29519000      -0.18718000 </v>
   <v>      -0.49995000      -0.32677000       0.06286000 </v>
   <v>       0.25005000       0.32677000       0.06286000 </v>
   <v>      -0.25005000      -0.32677000       0.31286000 </v>
   <v>      -0.24995000       0.32677000      -0.43714000 </v>
   <v>      -0.00005000       0.32677000       0.31286000 </v>
   <v>       0.00005000      -0.32677000      -0.43714000 </v>
   <v>       0.49995000       0.32677000      -0.18714000 </v>
   <v>       0.24995000      -0.32677000      -0.18714000 </v>
   <v>      -0.12461000       0.00017000       0.43687000 </v>
   <v>       0.37539000       0.00017000      -0.06313000 </v>
   <v>      -0.25013000      -0.07798000       0.06246000 </v>
   <v>      -0.00013000       0.07798000       0.06246000 </v>
   <v>      -0.24987000       0.07798000      -0.18754000 </v>
   <v>       0.00013000      -0.07798000      -0.18754000 </v>
   <v>       0.12539000      -0.00016000      -0.06313000 </v>
   <v>      -0.37461000      -0.00016000      -0.06313000 </v>
   <v>      -0.24987000      -0.29519000       0.06281000 </v>
   <v>       0.00013000       0.29519000       0.06281000 </v>
   <v>      -0.25013000       0.29519000      -0.18718000 </v>
   <v>      -0.00013000      -0.29519000      -0.18718000 </v>
   <v>      -0.24995000       0.32677000       0.06286000 </v>
   <v>       0.00005000      -0.32677000       0.06286000 </v>
   <v>      -0.25005000      -0.32677000      -0.18714000 </v>
   <v>      -0.00005000       0.32677000      -0.18714000 </v>
   <v>      -0.12461000       0.00017000      -0.06313000 </v>
  </varray>
 </structure>
 <varray name="primitive_index" >
  <v type="int" >        1 </v>
  <v type="int" >       53 </v>
  <v type="int" >       48 </v>
  <v type="int" >       54 </v>
  <v type="int" >       55 </v>
  <v type="int" >        4 </v>
  <v type="int" >        3 </v>
  <v type="int" >        8 </v>
  <v type="int" >       17 </v>
  <v type="int" >       16 </v>
  <v type="int" >       26 </v>
  <v type="int" >       23 </v>
  <v type="int" >       32 </v>
  <v type="int" >       33 </v>
  <v type="int" >       43 </v>
  <v type="int" >       38 </v>
  <v type="int" >        5 </v>
  <v type="int" >       10 </v>
  <v type="int" >        2 </v>
  <v type="int" >       12 </v>
  <v type="int" >       46 </v>
  <v type="int" >       52 </v>
  <v type="int" >       59 </v>
  <v type="int" >       47 </v>
  <v type="int" >       49 </v>
  <v type="int" >       61 </v>
  <v type="int" >       58 </v>
  <v type="int" >       56 </v>
  <v type="int" >       18 </v>
  <v type="int" >       20 </v>
  <v type="int" >       15 </v>
  <v type="int" >       27 </v>
  <v type="int" >       21 </v>
  <v type="int" >       22 </v>
  <v type="int" >       25 </v>
  <v type="int" >       24 </v>
  <v type="int" >       35 </v>
  <v type="int" >       30 </v>
  <v type="int" >       37 </v>
  <v type="int" >       42 </v>
  <v type="int" >       36 </v>
  <v type="int" >       39 </v>
  <v type="int" >       40 </v>
  <v type="int" >       41 </v>
  <v type="int" >       11 </v>
  <v type="int" >        7 </v>
  <v type="int" >       51 </v>
  <v type="int" >       50 </v>
  <v type="int" >       60 </v>
  <v type="int" >       57 </v>
  <v type="int" >        6 </v>
  <v type="int" >        9 </v>
  <v type="int" >       19 </v>
  <v type="int" >       14 </v>
  <v type="int" >       28 </v>
  <v type="int" >       29 </v>
  <v type="int" >       34 </v>
  <v type="int" >       31 </v>
  <v type="int" >       45 </v>
  <v type="int" >       44 </v>
  <v type="int" >       13 </v>
 </varray>
 <kpoints>
  <generation param="Gamma">
   <v type="int" name="divisions">       2        2        2 </v>
   <v name="usershift">      0.00000000       0.00000000       0.00000000 </v>
   <v name="genvec1">      0.50000000       0.00000000       0.00000000 </v>
   <v name="genvec2">      0.00000000       0.50000000       0.00000000 </v>
   <v name="genvec3">      0.00000000       0.00000000       0.50000000 </v>
   <v name="shift">      0.00000000       0.00000000       0.00000000 </v>
  </generation>
  <varray name="kpointlist" >
   <v>       0.00000000       0.00000000       0.00000000 </v>
   <v>       0.50000000       0.00000000       0.00000000 </v>
   <v>       0.00000000       0.50000000       0.00000000 </v>
   <v>       0.50000000       0.50000000       0.00000000 </v>
   <v>       0.00000000       0.00000000       0.50000000 </v>
   <v>       0.50000000       0.00000000       0.50000000 </v>
   <v>       0.00000000       0.50000000       0.50000000 </v>
   <v>       0.50000000       0.50000000       0.50000000 </v>
  </varray>
  <varray name="weights" >
   <v>       0.12500000 </v>
   <v>       0.12500000 </v>
   <v>       0.12500000 </v>
   <v>       0.12500000 </v>
   <v>       0.12500000 </v>
   <v>       0.12500000 </v>
   <v>       0.12500000 </v>
   <v>       0.12500000 </v>
  </varray>
  <varray name="tetrahedronlist"  type="int" >
   <v type="int" >        2        1        2        4        5 </v>
   <v type="int" >        2        1        3        4        5 </v>
   <v type="int" >        2        3        4        5        7 </v>
   <v type="int" >        2        2        4        5        6 </v>
   <v type="int" >        2        4        5        6        8 </v>
   <v type="int" >        2        4        5        7        8 </v>
   <v type="int" >        2        1        2        3        6 </v>
   <v type="int" >        2        2        3        4        6 </v>
   <v type="int" >        2        3        4        6        8 </v>
   <v type="int" >        2        1        3        5        6 </v>
   <v type="int" >        2        3        5        6        7 </v>
   <v type="int" >        2        3        6        7        8 </v>
   <v type="int" >        2        2        3        4        7 </v>
   <v type="int" >        2        1        2        3        7 </v>
   <v type="int" >        2        1        2        5        7 </v>
   <v type="int" >        2        2        4        7        8 </v>
   <v type="int" >        2        2        6        7        8 </v>
   <v type="int" >        2        2        5        6        7 </v>
   <v type="int" >        2        1        3        4        8 </v>
   <v type="int" >        2        1        2        4        8 </v>
   <v type="int" >        2        1        2        6        8 </v>
   <v type="int" >        2        1        3        7        8 </v>
   <v type="int" >        2        1        5        7        8 </v>
   <v type="int" >        2        1        5        6        8 </v>
  </varray>
  <i name="volumeweight">      0.02083333 </i>
 </kpoints>
 <parameters>
  <separator name="general" >
   <i type="string" name="SYSTEM">La2O2S</i>
   <i type="logical" name="LCOMPAT"> F  </i>
  </separator>
  <separator name="electronic" >
   <i type="string" name="PREC">normal</i>
   <i name="ENMAX">    600.00000000</i>
   <i name="ENAUG">    900.00000000</i>
   <i name="EDIFF">      0.00000100</i>
   <i type="int" name="IALGO">    38</i>
   <i type="int" name="IWAVPR">    11</i>
   <i type="int" name="NBANDS">   280</i>
   <i name="NELECT">    468.00000000</i>
   <i type="int" name="TURBO">     0</i>
   <i type="int" name="IRESTART">     0</i>
   <i type="int" name="NREBOOT">     0</i>
   <i type="int" name="NMIN">     0</i>
   <i name="EREF">      0.00000000</i>
   <separator name="electronic smearing" >
    <i type="int" name="ISMEAR">    -5</i>
    <i name="SIGMA">      0.20000000</i>
    <i name="KSPACING">      0.50000000</i>
    <i type="logical" name="KGAMMA"> T  </i>
   </separator>
   <separator name="electronic projectors" >
    <i type="logical" name="LREAL"> F  </i>
    <v name="ROPT">      0.00000000      0.00000000      0.00000000      0.00000000      0.00000000</v>
    <i type="int" name="LMAXPAW">  -100</i>
    <i type="int" name="LMAXMIX">     2</i>
    <i type="logical" name="NLSPLINE"> F  </i>
   </separator>
   <separator name="electronic startup" >
    <i type="int" name="ISTART">     0</i>
    <i type="int" name="ICHARG">     2</i>
    <i type="int" name="INIWAV">     1</i>
   </separator>
   <separator name="electronic spin" >
    <i type="int" name="ISPIN">     1</i>
    <i type="logical" name="LNONCOLLINEAR"> F  </i>
    <v name="MAGMOM">      1.00000000      1.00000000      1.00000000      1.00000000      1.00000000      1.00000000      1.00000000      1.00000000      1.00000000      1.00000000      1.00000000      1.00000000      1.00000000      1.00000000      1.00000000      1.00000000      1.00000000      1.00000000      1.00000000      1.00000000
      1.00000000      1.00000000      1.00000000      1.00000000      1.00000000      1.00000000      1.00000000      1.00000000      1.00000000      1.00000000      1.00000000      1.00000000      1.00000000      1.00000000      1.00000000      1.00000000      1.00000000      1.00000000      1.00000000      1.00000000
      1.00000000      1.00000000      1.00000000      1.00000000      1.00000000      1.00000000      1.00000000      1.00000000      1.00000000      1.00000000      1.00000000      1.00000000      1.00000000      1.00000000      1.00000000      1.00000000      1.00000000      1.00000000      1.00000000      1.00000000
      1.00000000</v>
    <i name="NUPDOWN">     -1.00000000</i>
    <i type="logical" name="LSORBIT"> F  </i>
    <v name="SAXIS">      0.00000000      0.00000000      1.00000000</v>
    <i type="logical" name="LSPIRAL"> F  </i>
    <v name="QSPIRAL">      0.00000000      0.00000000      0.00000000</v>
    <i type="logical" name="LZEROZ"> F  </i>
   </separator>
   <separator name="electronic exchange-correlation" >
    <i type="logical" name="LASPH"> F  </i>
    <i type="logical" name="LMETAGGA"> F  </i>
   </separator>
   <separator name="electronic convergence" >
    <i type="int" name="NELM">    60</i>
    <i type="int" name="NELMDL">    -5</i>
    <i type="int" name="NELMIN">     4</i>
    <i name="ENINI">    600.00000000</i>
    <separator name="electronic convergence detail" >
     <i type="logical" name="LDIAG"> T  </i>
     <i type="logical" name="LSUBROT"> F  </i>
     <i name="WEIMIN">      0.00100000</i>
     <i name="EBREAK">      0.00000000</i>
     <i name="DEPER">      0.30000000</i>
     <i type="int" name="NRMM">     4</i>
     <i name="TIME">      0.40000000</i>
    </separator>
   </separator>
   <separator name="electronic mixer" >
    <i name="AMIX">      0.40000000</i>
    <i name="BMIX">      1.00000000</i>
    <i name="AMIN">      0.10000000</i>
    <i name="AMIX_MAG">      1.60000000</i>
    <i name="BMIX_MAG">      1.00000000</i>
    <separator name="electronic mixer details" >
     <i type="int" name="IMIX">     4</i>
     <i type="logical" name="MIXFIRST"> F  </i>
     <i type="int" name="MAXMIX">   -45</i>
     <i name="WC">    100.00000000</i>
     <i type="int" name="INIMIX">     1</i>
     <i type="int" name="MIXPRE">     1</i>
     <i type="int" name="MREMOVE">     5</i>
    </separator>
   </separator>
   <separator name="electronic dipolcorrection" >
    <i type="logical" name="LDIPOL"> F  </i>
    <i type="logical" name="LMONO"> F  </i>
    <i type="int" name="IDIPOL">     0</i>
    <i name="EPSILON">      1.00000000</i>
    <v name="DIPOL">   -100.00000000   -100.00000000   -100.00000000</v>
    <i name="EFIELD">      0.00000000</i>
   </separator>
  </separator>
  <separator name="grids" >
   <i type="int" name="NGX">    70</i>
   <i type="int" name="NGY">    60</i>
   <i type="int" name="NGZ">    70</i>
   <i type="int" name="NGXF">   140</i>
   <i type="int" name="NGYF">   120</i>
   <i type="int" name="NGZF">   140</i>
   <i type="logical" name="ADDGRID"> F  </i>
  </separator>
  <separator name="ionic" >
   <i type="int" name="NSW">     1</i>
   <i type="int" name="IBRION">     2</i>
   <i type="int" name="MDALGO">     0</i>
   <i type="int" name="ISIF">     2</i>
   <i name="PSTRESS">      0.00000000</i>
   <i name="EDIFFG">     -0.01000000</i>
   <i type="int" name="NFREE">    10</i>
   <i name="POTIM">      0.50000000</i>
   <i name="SMASS">     -3.00000000</i>
   <i name="SCALEE">      1.00000000</i>
  </separator>
  <separator name="ionic md" >
   <i name="TEBEG">      0.00010000</i>
   <i name="TEEND">      0.00010000</i>
   <i type="int" name="NBLOCK">     1</i>
   <i type="int" name="KBLOCK">     1</i>
   <i type="int" name="NPACO">   256</i>
   <i name="APACO">     16.00000000</i>
  </separator>
  <separator name="symmetry" >
   <i type="int" name="ISYM">     2</i>
   <i name="SYMPREC">      0.00001000</i>
  </separator>
  <separator name="dos" >
   <i type="int" name="LORBIT">     0</i>
   <v name="RWIGS">     -1.00000000     -1.00000000     -1.00000000     -1.00000000     -1.00000000</v>
   <i type="int" name="NEDOS">   301</i>
   <i name="EMIN">     10.00000000</i>
   <i name="EMAX">    -10.00000000</i>
   <i name="EFERMI">      0.00000000</i>
  </separator>
  <separator name="writing" >
   <i type="int" name="NWRITE">     2</i>
   <i type="logical" name="LWAVE"> F  </i>
   <i type="logical" name="LDOWNSAMPLE"> F  </i>
   <i type="logical" name="LCHARG"> F  </i>
   <i type="logical" name="LPARD"> F  </i>
   <i type="logical" name="LVTOT"> F  </i>
   <i type="logical" name="LVHAR"> F  </i>
   <i type="logical" name="LELF"> F  </i>
   <i type="logical" name="LOPTICS"> F  </i>
   <v name="STM">      0.00000000      0.00000000      0.00000000      0.00000000      0.00000000      0.00000000      0.00000000</v>
  </separator>
  <separator name="performance" >
   <i type="int" name="NPAR">    28</i>
   <i type="int" name="NSIM">     4</i>
   <i type="int" name="NBLK">    -1</i>
   <i type="logical" name="LPLANE"> T  </i>
   <i type="logical" name="LSCALAPACK"> T  </i>
   <i type="logical" name="LSCAAWARE"> F  </i>
   <i type="logical" name="LSCALU"> F  </i>
   <i type="logical" name="LASYNC"> F  </i>
   <i type="logical" name="LORBITALREAL"> F  </i>
  </separator>
  <separator name="miscellaneous" >
   <i type="int" name="IDIOT">     3</i>
   <i type="int" name="ISPECIAL">     0</i>
   <i type="logical" name="LMUSIC"> F  </i>
   <v name="POMASS">      7.01000000     24.30500000    208.98000000     32.06600000     16.00000000</v>
   <v name="DARWINR">      0.00000000      0.00000000      0.00000000      0.00000000      0.00000000</v>
   <v name="DARWINV">      1.00000000      1.00000000      1.00000000      1.00000000      1.00000000</v>
   <i type="logical" name="LCORR"> T  </i>
  </separator>
  <i type="logical" name="GGA_COMPAT"> T  </i>
  <i type="logical" name="LBERRY"> F  </i>
  <i type="int" name="ICORELEVEL">     0</i>
  <i type="logical" name="LDAU"> F  </i>
  <i type="int" name="I_CONSTRAINED_M">     0</i>
  <separator name="electronic exchange-correlation" >
   <i type="string" name="GGA">--</i>
   <i type="int" name="VOSKOWN">     0</i>
   <i type="logical" name="LHFCALC"> F  </i>
   <i type="string" name="PRECFOCK"></i>
   <i type="logical" name="LSYMGRAD"> F  </i>
   <i type="logical" name="LHFONE"> F  </i>
   <i type="logical" name="LRHFCALC"> F  </i>
   <i type="logical" name="LTHOMAS"> F  </i>
   <i type="logical" name="LMODELHF"> F  </i>
   <i name="ENCUT4O">     -1.00000000</i>
   <i type="int" name="EXXOEP">     0</i>
   <i type="int" name="FOURORBIT">     0</i>
   <i name="AEXX">      0.00000000</i>
   <i name="HFALPHA">      0.00000000</i>
   <i name="MCALPHA">      0.00000000</i>
   <i name="ALDAX">      1.00000000</i>
   <i name="AGGAX">      1.00000000</i>
   <i name="ALDAC">      1.00000000</i>
   <i name="AGGAC">      1.00000000</i>
   <i type="int" name="NKREDX">     1</i>
   <i type="int" name="NKREDY">     1</i>
   <i type="int" name="NKREDZ">     1</i>
   <i type="logical" name="SHIFTRED"> F  </i>
   <i type="logical" name="ODDONLY"> F  </i>
   <i type="logical" name="EVENONLY"> F  </i>
   <i type="int" name="LMAXFOCK">     0</i>
   <i type="int" name="NMAXFOCKAE">     0</i>
   <i type="logical" name="LFOCKAEDFT"> F  </i>
   <i name="HFSCREEN">      0.00000000</i>
   <i name="HFSCREENC">      0.00000000</i>
   <i type="int" name="NBANDSGWLOW">     0</i>
  </separator>
  <separator name="vdW DFT" >
   <i type="logical" name="LUSE_VDW"> F  </i>
   <i name="Zab_VDW">     -0.84910000</i>
   <i name="PARAM1">      0.12340000</i>
   <i name="PARAM2">      1.00000000</i>
   <i name="PARAM3">      0.00000000</i>
  </separator>
  <separator name="model GW" >
   <i type="int" name="MODEL_GW">     0</i>
   <i name="MODEL_EPS0">     11.77228070</i>
   <i name="MODEL_ALPHA">      1.00000000</i>
  </separator>
  <separator name="linear response parameters" >
   <i type="logical" name="LEPSILON"> F  </i>
   <i type="logical" name="LRPA"> F  </i>
   <i type="logical" name="LNABLA"> F  </i>
   <i type="logical" name="LVEL"> F  </i>
   <i type="int" name="KINTER">     0</i>
   <i name="CSHIFT">      0.10000000</i>
   <i name="OMEGAMAX">     -1.00000000</i>
   <i name="DEG_THRESHOLD">      0.00200000</i>
   <i name="RTIME">     -0.10000000</i>
   <i name="WPLASMAI">      0.00000000</i>
   <v name="DFIELD">      0.00000000      0.00000000      0.00000000</v>
   <v name="WPLASMA">      0.00000000      0.00000000      0.00000000      0.00000000      0.00000000      0.00000000      0.00000000      0.00000000      0.00000000</v>
  </separator>
  <separator name="orbital magnetization" >
   <i type="logical" name="NUCIND"> F  </i>
   <v name="MAGPOS">      0.00000000      0.00000000      0.00000000</v>
   <i type="logical" name="LNICSALL"> T  </i>
   <i type="logical" name="ORBITALMAG"> F  </i>
   <i type="logical" name="LMAGBLOCH"> F  </i>
   <i type="logical" name="LCHIMAG"> F  </i>
   <i type="logical" name="LGAUGE"> T  </i>
   <i type="int" name="MAGATOM">     0</i>
   <v name="MAGDIPOL">      0.00000000      0.00000000      0.00000000</v>
   <v name="AVECCONST">      0.00000000      0.00000000      0.00000000</v>
  </separator>
  <separator name="response functions" >
   <i type="logical" name="LADDER"> F  </i>
   <i type="logical" name="LRPAFORCE"> F  </i>
   <i type="logical" name="LFXC"> F  </i>
   <i type="logical" name="LHARTREE"> T  </i>
   <i type="int" name="IBSE">     0</i>
   <v type="int" name="KPOINT">    -1     0     0     0</v>
   <i type="logical" name="LTCTE"> F  </i>
   <i type="logical" name="LTETE"> F  </i>
   <i type="logical" name="LTRIPLET"> F  </i>
   <i type="logical" name="LFXCEPS"> F  </i>
   <i type="logical" name="LFXHEG"> F  </i>
   <i type="int" name="NATURALO">     2</i>
   <i type="logical" name="L2ORDER"> F  </i>
   <i type="logical" name="LMP2LT"> F  </i>
   <i type="logical" name="LUSEW"> F  </i>
   <i name="ENCUTGW">     -2.00000000</i>
   <i name="ENCUTGWSOFT">     -2.00000000</i>
   <i name="ENCUTLF">     -1.00000000</i>
   <i type="int" name="LMAXMP2">    -1</i>
   <i name="SCISSOR">      0.00000000</i>
   <i type="int" name="NOMEGA">     0</i>
   <i type="int" name="NOMEGAR">     0</i>
   <i type="int" name="NBANDSGW">    -1</i>
   <i type="int" name="NBANDSO">    -1</i>
   <i type="int" name="NBANDSV">    -1</i>
   <i type="int" name="NELM">     1</i>
   <i type="int" name="NELMHF">     1</i>
   <i type="int" name="DIM">     3</i>
   <i type="int" name="ANTIRES">     0</i>
   <i name="OMEGAMAX">    -30.00000000</i>
   <i name="OMEGAMIN">    -30.00000000</i>
   <i name="OMEGATL">   -200.00000000</i>
   <i type="int" name="OMEGAGRID">   140</i>
   <i name="CSHIFT">     -0.10000000</i>
   <i type="logical" name="SELFENERGY"> F  </i>
   <i type="logical" name="LSPECTRAL"> F  </i>
   <i type="logical" name="LSPECTRALGW"> F  </i>
   <i type="logical" name="LSINGLES"> F  </i>
   <i type="logical" name="LFERMIGW"> F  </i>
   <i type="logical" name="ODDONLYGW"> F  </i>
   <i type="logical" name="EVENONLYGW"> F  </i>
   <i type="int" name="NKREDLFX">     1</i>
   <i type="int" name="NKREDLFY">     1</i>
   <i type="int" name="NKREDLFZ">     1</i>
   <i type="int" name="MAXMEM">  2800</i>
   <i type="int" name="TELESCOPE">     0</i>
   <i type="int" name="TAUPAR">     1</i>
   <i type="int" name="OMEGAPAR">    -1</i>
   <i name="LAMBDA">      1.00000000</i>
  </separator>
  <separator name="External order field" >
   <i name="OFIELD_KAPPA">      0.00000000</i>
   <v name="OFIELD_K">      0.00000000      0.00000000      0.00000000</v>
   <i name="OFIELD_Q6_NEAR">      0.00000000</i>
   <i name="OFIELD_Q6_FAR">      0.00000000</i>
   <i name="OFIELD_A">      0.00000000</i>
  </separator>
 </parameters>
 <atominfo>
  <atoms>      61 </atoms>
  <types>       5 </types>
  <array name="atoms" >
   <dimension dim="1">ion</dimension>
   <field type="string">element</field>
   <field type="int">atomtype</field>
   <set>
    <rc><c>Li</c><c>   1</c></rc>
    <rc><c>Li</c><c>   1</c></rc>
    <rc><c>Li</c><c>   1</c></rc>
    <rc><c>Li</c><c>   1</c></rc>
    <rc><c>Li</c><c>   1</c></rc>
    <rc><c>Li</c><c>   1</c></rc>
    <rc><c>Li</c><c>   1</c></rc>
    <rc><c>Li</c><c>   1</c></rc>
    <rc><c>Li</c><c>   1</c></rc>
    <rc><c>Li</c><c>   1</c></rc>
    <rc><c>Mg</c><c>   2</c></rc>
    <rc><c>Mg</c><c>   2</c></rc>
    <rc><c>Mg</c><c>   2</c></rc>
    <rc><c>Bi</c><c>   3</c></rc>
    <rc><c>Bi</c><c>   3</c></rc>
    <rc><c>Bi</c><c>   3</c></rc>
    <rc><c>Bi</c><c>   3</c></rc>
    <rc><c>Bi</c><c>   3</c></rc>
    <rc><c>Bi</c><c>   3</c></rc>
    <rc><c>Bi</c><c>   3</c></rc>
    <rc><c>Bi</c><c>   3</c></rc>
    <rc><c>Bi</c><c>   3</c></rc>
    <rc><c>Bi</c><c>   3</c></rc>
    <rc><c>Bi</c><c>   3</c></rc>
    <rc><c>Bi</c><c>   3</c></rc>
    <rc><c>Bi</c><c>   3</c></rc>
    <rc><c>Bi</c><c>   3</c></rc>
    <rc><c>Bi</c><c>   3</c></rc>
    <rc><c>Bi</c><c>   3</c></rc>
    <rc><c>S </c><c>   4</c></rc>
    <rc><c>S </c><c>   4</c></rc>
    <rc><c>S </c><c>   4</c></rc>
    <rc><c>S </c><c>   4</c></rc>
    <rc><c>S </c><c>   4</c></rc>
    <rc><c>S </c><c>   4</c></rc>
    <rc><c>S </c><c>   4</c></rc>
    <rc><c>S </c><c>   4</c></rc>
    <rc><c>S </c><c>   4</c></rc>
    <rc><c>S </c><c>   4</c></rc>
    <rc><c>S </c><c>   4</c></rc>
    <rc><c>S </c><c>   4</c></rc>
    <rc><c>S </c><c>   4</c></rc>
    <rc><c>S </c><c>   4</c></rc>
    <rc><c>S </c><c>   4</c></rc>
    <rc><c>S </c><c>   4</c></rc>
    <rc><c>O </c><c>   5</c></rc>
    <rc><c>O </c><c>   5</c></rc>
    <rc><c>O </c><c>   5</c></rc>
    <rc><c>O </c><c>   5</c></rc>
    <rc><c>O </c><c>   5</c></rc>
    <rc><c>O </c><c>   5</c></rc>
    <rc><c>O </c><c>   5</c></rc>
    <rc><c>O </c><c>   5</c></rc>
    <rc><c>O </c><c>   5</c></rc>
    <rc><c>O </c><c>   5</c></rc>
    <rc><c>O </c><c>   5</c></rc>
    <rc><c>O </c><c>   5</c></rc>
    <rc><c>O </c><c>   5</c></rc>
    <rc><c>O </c><c>   5</c></rc>
    <rc><c>O </c><c>   5</c></rc>
    <rc><c>O </c><c>   5</c></rc>
   </set>
  </array>
  <array name="atomtypes" >
   <dimension dim="1">type</dimension>
   <field type="int">atomspertype</field>
   <field type="string">element</field>
   <field>mass</field>
   <field>valence</field>
   <field type="string">pseudopotential</field>
   <set>
    <rc><c>  10</c><c>Li</c><c>      7.01000000</c><c>      3.00000000</c><c>  PAW_PBE Li_sv 10Sep2004               </c></rc>
    <rc><c>   3</c><c>Mg</c><c>     24.30500000</c><c>      2.00000000</c><c>  PAW_PBE Mg 13Apr2007                  </c></rc>
    <rc><c>  16</c><c>Bi</c><c>    208.98000000</c><c>     15.00000000</c><c>  PAW_PBE Bi_d 06Sep2000                </c></rc>
    <rc><c>  16</c><c>S </c><c>     32.06600000</c><c>      6.00000000</c><c>  PAW_PBE S 06Sep2000                   </c></rc>
    <rc><c>  16</c><c>O </c><c>     16.00000000</c><c>      6.00000000</c><c>  PAW_PBE O 08Apr2002                   </c></rc>
   </set>
  </array>
 </atominfo>
 <structure name="initialpos" >
  <crystal>
   <varray name="basis" >
    <v>      11.17850000       0.00000000       0.00000000 </v>
    <v>       0.00000000       9.57460000       0.00000000 </v>
    <v>       0.00000000       0.00000000      11.18240000 </v>
   </varray>
   <i name="volume">   1196.84853820 </i>
   <varray name="rec_basis" >
    <v>       0.08945744       0.00000000       0.00000000 </v>
    <v>       0.00000000       0.10444301       0.00000000 </v>
    <v>       0.00000000       0.00000000       0.08942624 </v>
   </varray>
  </crystal>
  <varray name="positions" >
   <v>       0.37539000       0.00017000       0.43687000 </v>
   <v>       0.12461000       0.99984000       0.18687000 </v>
   <v>       0.37461000       0.00017000       0.18687000 </v>
   <v>       0.62539000       0.99984000       0.43687000 </v>
   <v>       0.62461000       0.99984000       0.18687000 </v>
   <v>       0.12539000       0.99984000       0.93687000 </v>
   <v>       0.37539000       0.00017000       0.93687000 </v>
   <v>       0.37461000       0.00017000       0.68687000 </v>
   <v>       0.62539000       0.99984000       0.93687000 </v>
   <v>       0.62461000       0.99984000       0.68687000 </v>
   <v>       0.87539000       0.00017000       0.43687000 </v>
   <v>       0.12461000       0.99984000       0.68687000 </v>
   <v>       0.87539000       0.00017000       0.93687000 </v>
   <v>       0.00013000       0.29519000       0.06281000 </v>
   <v>       0.25013000       0.70481000       0.06281000 </v>
   <v>       0.24987000       0.29519000       0.31282000 </v>
   <v>       0.49987000       0.70481000       0.31282000 </v>
   <v>       0.50013000       0.29519000       0.06281000 </v>
   <v>       0.75013000       0.70481000       0.06281000 </v>
   <v>       0.74987000       0.29519000       0.31282000 </v>
   <v>       0.99987000       0.70481000       0.31282000 </v>
   <v>       0.00013000       0.29519000       0.56281000 </v>
   <v>       0.25013000       0.70481000       0.56281000 </v>
   <v>       0.24987000       0.29519000       0.81282000 </v>
   <v>       0.49987000       0.70481000       0.81282000 </v>
   <v>       0.50013000       0.29519000       0.56281000 </v>
   <v>       0.75013000       0.70481000       0.56281000 </v>
   <v>       0.74987000       0.29519000       0.81282000 </v>
   <v>       0.99987000       0.70481000       0.81282000 </v>
   <v>       0.25005000       0.32677000       0.06286000 </v>
   <v>       0.00005000       0.67323000       0.06286000 </v>
   <v>       0.49995000       0.32677000       0.31286000 </v>
   <v>       0.24995000       0.67323000       0.31286000 </v>
   <v>       0.75005000       0.32677000       0.06286000 </v>
   <v>       0.50005000       0.67323000       0.06286000 </v>
   <v>       0.99995000       0.32677000       0.31286000 </v>
   <v>       0.74995000       0.67323000       0.31286000 </v>
   <v>       0.25005000       0.32677000       0.56286000 </v>
   <v>       0.00005000       0.67323000       0.56286000 </v>
   <v>       0.49995000       0.32677000       0.81286000 </v>
   <v>       0.24995000       0.67323000       0.81286000 </v>
   <v>       0.75005000       0.32677000       0.56286000 </v>
   <v>       0.50005000       0.67323000       0.56286000 </v>
   <v>       0.99995000       0.32677000       0.81286000 </v>
   <v>       0.74995000       0.67323000       0.81286000 </v>
   <v>       0.49987000       0.07798000       0.06246000 </v>
   <v>       0.24987000       0.92202000       0.06246000 </v>
   <v>       0.25013000       0.07798000       0.31246000 </v>
   <v>       0.00013000       0.92202000       0.31246000 </v>
   <v>       0.99987000       0.07798000       0.06246000 </v>
   <v>       0.74987000       0.92202000       0.06246000 </v>
   <v>       0.75013000       0.07798000       0.31246000 </v>
   <v>       0.50013000       0.92202000       0.31246000 </v>
   <v>       0.49987000       0.07798000       0.56246000 </v>
   <v>       0.24987000       0.92202000       0.56246000 </v>
   <v>       0.25013000       0.07798000       0.81246000 </v>
   <v>       0.00013000       0.92202000       0.81246000 </v>
   <v>       0.99987000       0.07798000       0.56246000 </v>
   <v>       0.74987000       0.92202000       0.56246000 </v>
   <v>       0.75013000       0.07798000       0.81246000 </v>
   <v>       0.50013000       0.92202000       0.81246000 </v>
  </varray>
 </structure>
 <calculation>
  <scstep>
   <time name="dav">   59.77   59.76</time>
   <time name="total">   59.85   59.84</time>
   <energy>
    <i name="alphaZ">   1073.51873187 </i>
    <i name="ewald"> -30858.28000369 </i>
    <i name="hartreedc"> -12730.35253383 </i>
    <i name="XCdc">   1394.96687412 </i>
    <i name="pawpsdc">  36823.70205594 </i>
    <i name="pawaedc"> -36326.52930246 </i>
    <i name="eentropy">      0.00000000 </i>
    <i name="bandstr">   1806.56327970 </i>
    <i name="atom">  44791.06186932 </i>
    <i name="e_fr_energy">   5974.65097097 </i>
    <i name="e_wo_entrp">   5974.65097097 </i>
    <i name="e_0_energy">   5974.65097097 </i>
   </energy>
  </scstep>
  <scstep>
   <time name="dav">   59.87   60.01</time>
   <time name="total">   59.88   60.02</time>
   <energy>
    <i name="e_fr_energy">    809.88361099 </i>
    <i name="e_wo_entrp">    809.88361099 </i>
    <i name="e_0_energy">    809.88361099 </i>
   </energy>
  </scstep>
  <scstep>
   <time name="dav">   68.74   68.75</time>
   <time name="total">   68.74   68.75</time>
   <energy>
    <i name="e_fr_energy">   -240.86014330 </i>
    <i name="e_wo_entrp">   -240.86014330 </i>
    <i name="e_0_energy">   -240.86014330 </i>
   </energy>
  </scstep>
  <scstep>
   <time name="dav">   72.06   72.07</time>
   <time name="total">   72.06   72.07</time>
   <energy>
    <i name="e_fr_energy">   -346.74622914 </i>
    <i name="e_wo_entrp">   -346.74622914 </i>
    <i name="e_0_energy">   -346.74622914 </i>
   </energy>
  </scstep>
  <scstep>
   <time name="dav">   96.06   96.06</time>
   <time name="total">   96.78   96.78</time>
   <energy>
    <i name="e_fr_energy">   -355.62762950 </i>
    <i name="e_wo_entrp">   -355.62762950 </i>
    <i name="e_0_energy">   -355.62762950 </i>
   </energy>
  </scstep>
  <scstep>
   <time name="dav">   85.51   85.50</time>
   <time name="total">   86.35   86.33</time>
   <energy>
    <i name="e_fr_energy">   -296.86293561 </i>
    <i name="e_wo_entrp">   -296.86293561 </i>
    <i name="e_0_energy">   -296.86293561 </i>
   </energy>
  </scstep>
  <scstep>
   <time name="dav">   66.02   66.01</time>
   <time name="total">   66.81   66.80</time>
   <energy>
    <i name="e_fr_energy">   -299.63764246 </i>
    <i name="e_wo_entrp">   -299.63764246 </i>
    <i name="e_0_energy">   -299.63764246 </i>
   </energy>
  </scstep>
  <scstep>
   <time name="dav">   77.33   77.31</time>
   <time name="total">   78.13   78.10</time>
   <energy>
    <i name="e_fr_energy">   -298.37956103 </i>
    <i name="e_wo_entrp">   -298.37956103 </i>
    <i name="e_0_energy">   -298.37956103 </i>
   </energy>
  </scstep>
  <scstep>
   <time name="dav">   74.96   74.94</time>
   <time name="total">   75.75   75.73</time>
   <energy>
    <i name="e_fr_energy">   -297.70469384 </i>
    <i name="e_wo_entrp">   -297.70469384 </i>
    <i name="e_0_energy">   -297.70469384 </i>
   </energy>
  </scstep>
  <scstep>
   <time name="dav">   74.30   74.35</time>
   <time name="total">   75.09   75.14</time>
   <energy>
    <i name="e_fr_energy">   -297.73928233 </i>
    <i name="e_wo_entrp">   -297.73928233 </i>
    <i name="e_0_energy">   -297.73928233 </i>
   </energy>
  </scstep>
  <scstep>
   <time name="dav">   79.51   79.63</time>
   <time name="total">   80.30   80.42</time>
   <energy>
    <i name="e_fr_energy">   -297.74775939 </i>
    <i name="e_wo_entrp">   -297.74775939 </i>
    <i name="e_0_energy">   -297.74775939 </i>
   </energy>
  </scstep>
  <scstep>
   <time name="dav">   78.80   79.08</time>
   <time name="total">   79.59   79.88</time>
   <energy>
    <i name="e_fr_energy">   -297.75118799 </i>
    <i name="e_wo_entrp">   -297.75118799 </i>
    <i name="e_0_energy">   -297.75118799 </i>
   </energy>
  </scstep>
  <scstep>
   <time name="dav">   69.60   69.73</time>
   <time name="total">   70.39   70.53</time>
   <energy>
    <i name="e_fr_energy">   -297.75230833 </i>
    <i name="e_wo_entrp">   -297.75230833 </i>
    <i name="e_0_energy">   -297.75230833 </i>
   </energy>
  </scstep>
  <scstep>
   <time name="dav">   79.95   80.10</time>
   <time name="total">   80.73   80.90</time>
   <energy>
    <i name="e_fr_energy">   -297.75248888 </i>
    <i name="e_wo_entrp">   -297.75248888 </i>
    <i name="e_0_energy">   -297.75248888 </i>
   </energy>
  </scstep>
  <scstep>
   <time name="dav">   82.91   83.12</time>
   <time name="total">   83.70   83.91</time>
   <energy>
    <i name="e_fr_energy">   -297.75252367 </i>
    <i name="e_wo_entrp">   -297.75252367 </i>
    <i name="e_0_energy">   -297.75252367 </i>
   </energy>
  </scstep>
  <scstep>
   <time name="dav">   64.34   64.58</time>
   <time name="total">   65.12   65.37</time>
   <energy>
    <i name="e_fr_energy">   -297.75254413 </i>
    <i name="e_wo_entrp">   -297.75254413 </i>
    <i name="e_0_energy">   -297.75254413 </i>
   </energy>
  </scstep>
  <scstep>
   <time name="dav">   65.46   65.48</time>
   <time name="total">   66.25   66.27</time>
   <energy>
    <i name="e_fr_energy">   -297.75254699 </i>
    <i name="e_wo_entrp">   -297.75254699 </i>
    <i name="e_0_energy">   -297.75254699 </i>
   </energy>
  </scstep>
  <scstep>
   <time name="dav">   62.48   62.59</time>
   <time name="total">   62.56   62.66</time>
   <energy>
    <i name="alphaZ">   1073.51873187 </i>
    <i name="ewald"> -30858.28000369 </i>
    <i name="hartreedc"> -12970.06046235 </i>
    <i name="XCdc">   1418.59868826 </i>
    <i name="pawpsdc">  43855.03462713 </i>
    <i name="pawaedc"> -43332.59562495 </i>
    <i name="eentropy">      0.00000000 </i>
    <i name="bandstr">  -4275.03037319 </i>
    <i name="atom">  44791.06186932 </i>
    <i name="e_fr_energy">   -297.75254759 </i>
    <i name="e_wo_entrp">   -297.75254759 </i>
    <i name="e_0_energy">   -297.75254759 </i>
   </energy>
  </scstep>
  <structure>
   <crystal>
    <varray name="basis" >
     <v>      11.17850000       0.00000000       0.00000000 </v>
     <v>       0.00000000       9.57460000       0.00000000 </v>
     <v>       0.00000000       0.00000000      11.18240000 </v>
    </varray>
    <i name="volume">   1196.84853820 </i>
    <varray name="rec_basis" >
     <v>       0.08945744       0.00000000       0.00000000 </v>
     <v>       0.00000000       0.10444301       0.00000000 </v>
     <v>       0.00000000       0.00000000       0.08942624 </v>
    </varray>
   </crystal>
   <varray name="positions" >
    <v>       0.37539000       0.00017000       0.43687000 </v>
    <v>       0.12461000       0.99984000       0.18687000 </v>
    <v>       0.37461000       0.00017000       0.18687000 </v>
    <v>       0.62539000       0.99984000       0.43687000 </v>
    <v>       0.62461000       0.99984000       0.18687000 </v>
    <v>       0.12539000       0.99984000       0.93687000 </v>
    <v>       0.37539000       0.00017000       0.93687000 </v>
    <v>       0.37461000       0.00017000       0.68687000 </v>
    <v>       0.62539000       0.99984000       0.93687000 </v>
    <v>       0.62461000       0.99984000       0.68687000 </v>
    <v>       0.87539000       0.00017000       0.43687000 </v>
    <v>       0.12461000       0.99984000       0.68687000 </v>
    <v>       0.87539000       0.00017000       0.93687000 </v>
    <v>       0.00013000       0.29519000       0.06281000 </v>
    <v>       0.25013000       0.70481000       0.06281000 </v>
    <v>       0.24987000       0.29519000       0.31282000 </v>
    <v>       0.49987000       0.70481000       0.31282000 </v>
    <v>       0.50013000       0.29519000       0.06281000 </v>
    <v>       0.75013000       0.70481000       0.06281000 </v>
    <v>       0.74987000       0.29519000       0.31282000 </v>
    <v>       0.99987000       0.70481000       0.31282000 </v>
    <v>       0.00013000       0.29519000       0.56281000 </v>
    <v>       0.25013000       0.70481000       0.56281000 </v>
    <v>       0.24987000       0.29519000       0.81282000 </v>
    <v>       0.49987000       0.70481000       0.81282000 </v>
    <v>       0.50013000       0.29519000       0.56281000 </v>
    <v>       0.75013000       0.70481000       0.56281000 </v>
    <v>       0.74987000       0.29519000       0.81282000 </v>
    <v>       0.99987000       0.70481000       0.81282000 </v>
    <v>       0.25005000       0.32677000       0.06286000 </v>
    <v>       0.00005000       0.67323000       0.06286000 </v>
    <v>       0.49995000       0.32677000       0.31286000 </v>
    <v>       0.24995000       0.67323000       0.31286000 </v>
    <v>       0.75005000       0.32677000       0.06286000 </v>
    <v>       0.50005000       0.67323000       0.06286000 </v>
    <v>       0.99995000       0.32677000       0.31286000 </v>
    <v>       0.74995000       0.67323000       0.31286000 </v>
    <v>       0.25005000       0.32677000       0.56286000 </v>
    <v>       0.00005000       0.67323000       0.56286000 </v>
    <v>       0.49995000       0.32677000       0.81286000 </v>
    <v>       0.24995000       0.67323000       0.81286000 </v>
    <v>       0.75005000       0.32677000       0.56286000 </v>
    <v>       0.50005000       0.67323000       0.56286000 </v>
    <v>       0.99995000       0.32677000       0.81286000 </v>
    <v>       0.74995000       0.67323000       0.81286000 </v>
    <v>       0.49987000       0.07798000       0.06246000 </v>
    <v>       0.24987000       0.92202000       0.06246000 </v>
    <v>       0.25013000       0.07798000       0.31246000 </v>
    <v>       0.00013000       0.92202000       0.31246000 </v>
    <v>       0.99987000       0.07798000       0.06246000 </v>
    <v>       0.74987000       0.92202000       0.06246000 </v>
    <v>       0.75013000       0.07798000       0.31246000 </v>
    <v>       0.50013000       0.92202000       0.31246000 </v>
    <v>       0.49987000       0.07798000       0.56246000 </v>
    <v>       0.24987000       0.92202000       0.56246000 </v>
    <v>       0.25013000       0.07798000       0.81246000 </v>
    <v>       0.00013000       0.92202000       0.81246000 </v>
    <v>       0.99987000       0.07798000       0.56246000 </v>
    <v>       0.74987000       0.92202000       0.56246000 </v>
    <v>       0.75013000       0.07798000       0.81246000 </v>
    <v>       0.50013000       0.92202000       0.81246000 </v>
   </varray>
  </structure>
  <varray name="forces" >
   <v>      -0.41864050       0.06580236      -0.11476570 </v>
   <v>      -0.32082833       0.00096962       0.53682389 </v>
   <v>      -0.14580200       0.06121847       0.20540524 </v>
   <v>      -0.15449830      -0.00188114      -0.03298068 </v>
   <v>       0.34106977       0.00096684       0.03662979 </v>
   <v>       0.15028246      -0.00258826       0.52712251 </v>
   <v>       0.08917232      -0.06818654       0.12919146 </v>
   <v>       0.33157365      -0.06384934      -0.19745354 </v>
   <v>      -0.15649278       0.00029338       0.04577217 </v>
   <v>       0.34413071      -0.00078319      -0.02668770 </v>
   <v>       0.76265261      -0.12146474      -0.20773602 </v>
   <v>      -0.61692876       0.00633610      -1.04798236 </v>
   <v>      -0.22819649       0.11434477       0.28226206 </v>
   <v>      -0.03463861       0.01208715       0.43317408 </v>
   <v>       0.02664532      -0.02709296       0.24146939 </v>
   <v>      -0.11560883      -1.02076537       0.08754681 </v>
   <v>      -0.05243548      -0.00169832      -0.00437657 </v>
   <v>      -0.03039571       0.00317674       0.13995816 </v>
   <v>       0.01546954       0.02637786       0.33049258 </v>
   <v>       0.06097814      -0.01899597      -0.19362110 </v>
   <v>       0.13281331       1.04508420      -0.08311824 </v>
   <v>      -0.00615273      -0.08772746      -0.25887897 </v>
   <v>      -0.01342872      -0.01551316      -0.45162205 </v>
   <v>       0.17496573       1.05643336       0.10512774 </v>
   <v>       0.05027764      -0.03563324       0.00501167 </v>
   <v>      -0.00100653       0.01976923      -0.15684031 </v>
   <v>      -0.00456624       0.03320038       0.03316194 </v>
   <v>      -0.04096427       0.01282487      -0.19008216 </v>
   <v>      -0.16158775      -1.00896727      -0.10912142 </v>
   <v>       0.00478327       0.19230445      -0.26369665 </v>
   <v>      -0.02314303      -0.12286318      -0.32093075 </v>
   <v>       0.09902235       0.22675719      -0.00133147 </v>
   <v>       0.13010793      -0.19854636      -0.02542545 </v>
   <v>       0.02504362       0.13885204      -0.13710356 </v>
   <v>      -0.01144575      -0.18493910      -0.07742087 </v>
   <v>      -0.13976245       0.14827592       0.03460095 </v>
   <v>      -0.08377941      -0.18087875       0.05641576 </v>
   <v>      -0.01511473       0.11583327       0.32169992 </v>
   <v>       0.01754583      -0.08612462       0.26353200 </v>
   <v>      -0.08816852       0.15043152      -0.00017039 </v>
   <v>      -0.11354260      -0.10642446      -0.03687535 </v>
   <v>       0.00592746       0.14677879       0.01954782 </v>
   <v>      -0.00997058      -0.18980274       0.07963032 </v>
   <v>       0.10276706       0.05640679       0.02331021 </v>
   <v>       0.09916972      -0.10540512       0.06049254 </v>
   <v>       0.00062141      -0.01708642      -0.09063902 </v>
   <v>       0.00824818       0.02693774      -0.24183111 </v>
   <v>       0.65913113       0.84135564      -0.60514249 </v>
   <v>      -0.52964473      -0.98725531       0.48802173 </v>
   <v>       0.13457359      -0.00644413      -1.32934461 </v>
   <v>      -0.10574424      -0.04149652      -1.18983304 </v>
   <v>      -0.21378762       0.10076287       1.09344054 </v>
   <v>       0.06286092      -0.03326910      -0.00168252 </v>
   <v>      -0.00295749      -0.01997258       0.08550330 </v>
   <v>       0.11265671       0.00980437       1.32084451 </v>
   <v>      -0.57737996      -0.85587987      -0.48314127 </v>
   <v>       0.72288458       0.70889223       0.60117770 </v>
   <v>       0.06074627       0.27838911       0.22230397 </v>
   <v>      -0.14633711      -0.06219333      -1.02704466 </v>
   <v>      -0.07440898      -0.00553751       1.09594341 </v>
   <v>      -0.08876202       0.07859879       0.00126583 </v>
  </varray>
  <varray name="stress" >
   <v>      -6.57102009      -0.00386086      -0.02807645 </v>
   <v>      -0.00386062     -14.12988920       0.03896305 </v>
   <v>      -0.02807634       0.03896307     -12.22285869 </v>
  </varray>
  <energy>
   <i name="e_fr_energy">   -312.44005866 </i>
   <i name="e_wo_entrp">   -312.44005866 </i>
   <i name="e_0_energy">      0.00000000 </i>
  </energy>
  <time name="totalsc"> 1435.51 1437.47</time>
  <eigenvalues>
   <array>
    <dimension dim="1">band</dimension>
    <dimension dim="2">kpoint</dimension>
    <dimension dim="3">spin</dimension>
    <field>eigene</field>
    <field>occ</field>
    <set>
     <set comment="spin 1">
      <set comment="kpoint 1">
       <r>  -40.2665    1.0000 </r>
       <r>  -40.0569    1.0000 </r>
       <r>  -40.0089    1.0000 </r>
       <r>  -39.8806    1.0000 </r>
       <r>  -39.7986    1.0000 </r>
       <r>  -39.7841    1.0000 </r>
       <r>  -39.7111    1.0000 </r>
       <r>  -39.5955    1.0000 </r>
       <r>  -39.5589    1.0000 </r>
       <r>  -39.3714    1.0000 </r>
       <r>  -18.9232    1.0000 </r>
       <r>  -18.9197    1.0000 </r>
       <r>  -18.8527    1.0000 </r>
       <r>  -18.8482    1.0000 </r>
       <r>  -18.8457    1.0000 </r>
       <r>  -18.8410    1.0000 </r>
       <r>  -18.7499    1.0000 </r>
       <r>  -18.7487    1.0000 </r>
       <r>  -18.7362    1.0000 </r>
       <r>  -18.7274    1.0000 </r>
       <r>  -18.7083    1.0000 </r>
       <r>  -18.7061    1.0000 </r>
       <r>  -18.6985    1.0000 </r>
       <r>  -18.6961    1.0000 </r>
       <r>  -18.6909    1.0000 </r>
       <r>  -18.6872    1.0000 </r>
       <r>  -18.6441    1.0000 </r>
       <r>  -18.6420    1.0000 </r>
       <r>  -18.6379    1.0000 </r>
       <r>  -18.6367    1.0000 </r>
       <r>  -18.6348    1.0000 </r>
       <r>  -18.6337    1.0000 </r>
       <r>  -18.6327    1.0000 </r>
       <r>  -18.6312    1.0000 </r>
       <r>  -18.6292    1.0000 </r>
       <r>  -18.6281    1.0000 </r>
       <r>  -18.6280    1.0000 </r>
       <r>  -18.6268    1.0000 </r>
       <r>  -18.6254    1.0000 </r>
       <r>  -18.6252    1.0000 </r>
       <r>  -18.6237    1.0000 </r>
       <r>  -18.6223    1.0000 </r>
       <r>  -18.6204    1.0000 </r>
       <r>  -18.6201    1.0000 </r>
       <r>  -18.6176    1.0000 </r>
       <r>  -18.6153    1.0000 </r>
       <r>  -18.6137    1.0000 </r>
       <r>  -18.6124    1.0000 </r>
       <r>  -18.6113    1.0000 </r>
       <r>  -18.6050    1.0000 </r>
       <r>  -18.5593    1.0000 </r>
       <r>  -18.5562    1.0000 </r>
       <r>  -18.5519    1.0000 </r>
       <r>  -18.5462    1.0000 </r>
       <r>  -18.5446    1.0000 </r>
       <r>  -18.5428    1.0000 </r>
       <r>  -18.5361    1.0000 </r>
       <r>  -18.5347    1.0000 </r>
       <r>  -18.5340    1.0000 </r>
       <r>  -18.5299    1.0000 </r>
       <r>  -18.4903    1.0000 </r>
       <r>  -18.4871    1.0000 </r>
       <r>  -18.4778    1.0000 </r>
       <r>  -18.4762    1.0000 </r>
       <r>  -18.4752    1.0000 </r>
       <r>  -18.4733    1.0000 </r>
       <r>  -18.4722    1.0000 </r>
       <r>  -18.4718    1.0000 </r>
       <r>  -18.4718    1.0000 </r>
       <r>  -18.4687    1.0000 </r>
       <r>  -18.4677    1.0000 </r>
       <r>  -18.4672    1.0000 </r>
       <r>  -18.4670    1.0000 </r>
       <r>  -18.4626    1.0000 </r>
       <r>  -18.4581    1.0000 </r>
       <r>  -18.4474    1.0000 </r>
       <r>  -18.4026    1.0000 </r>
       <r>  -18.3945    1.0000 </r>
       <r>  -18.3890    1.0000 </r>
       <r>  -18.3861    1.0000 </r>
       <r>  -18.3847    1.0000 </r>
       <r>  -18.3826    1.0000 </r>
       <r>  -18.3760    1.0000 </r>
       <r>  -18.3735    1.0000 </r>
       <r>  -18.2969    1.0000 </r>
       <r>  -18.2969    1.0000 </r>
       <r>  -18.1876    1.0000 </r>
       <r>  -18.1820    1.0000 </r>
       <r>  -18.1681    1.0000 </r>
       <r>  -18.1604    1.0000 </r>
       <r>  -13.5652    1.0000 </r>
       <r>  -13.4577    1.0000 </r>
       <r>  -12.8732    1.0000 </r>
       <r>  -12.7859    1.0000 </r>
       <r>  -12.7521    1.0000 </r>
       <r>  -12.7453    1.0000 </r>
       <r>  -12.7115    1.0000 </r>
       <r>  -12.6783    1.0000 </r>
       <r>  -12.6643    1.0000 </r>
       <r>  -12.6579    1.0000 </r>
       <r>  -12.6192    1.0000 </r>
       <r>  -12.6053    1.0000 </r>
       <r>  -12.5797    1.0000 </r>
       <r>  -12.5294    1.0000 </r>
       <r>  -11.9741    1.0000 </r>
       <r>  -11.9139    1.0000 </r>
       <r>   -9.3159    1.0000 </r>
       <r>   -9.0214    1.0000 </r>
       <r>   -8.5222    1.0000 </r>
       <r>   -8.4897    1.0000 </r>
       <r>   -8.4748    1.0000 </r>
       <r>   -8.4326    1.0000 </r>
       <r>   -8.3000    1.0000 </r>
       <r>   -8.2696    1.0000 </r>
       <r>   -8.2484    1.0000 </r>
       <r>   -8.2086    1.0000 </r>
       <r>   -8.0181    1.0000 </r>
       <r>   -8.0168    1.0000 </r>
       <r>   -7.9828    1.0000 </r>
       <r>   -7.9811    1.0000 </r>
       <r>   -7.3461    1.0000 </r>
       <r>   -7.3452    1.0000 </r>
       <r>   -6.3609    1.0000 </r>
       <r>   -6.3575    1.0000 </r>
       <r>   -6.3298    1.0000 </r>
       <r>   -6.3266    1.0000 </r>
       <r>   -5.5161    1.0000 </r>
       <r>   -5.4802    1.0000 </r>
       <r>   -5.3497    1.0000 </r>
       <r>   -5.3297    1.0000 </r>
       <r>   -5.3243    1.0000 </r>
       <r>   -5.2397    1.0000 </r>
       <r>   -5.1960    1.0000 </r>
       <r>   -5.1559    1.0000 </r>
       <r>   -5.1150    1.0000 </r>
       <r>   -5.0453    1.0000 </r>
       <r>   -3.7954    1.0000 </r>
       <r>   -3.6416    1.0000 </r>
       <r>   -1.4381    1.0000 </r>
       <r>   -1.3003    1.0000 </r>
       <r>   -1.0911    1.0000 </r>
       <r>   -0.9924    1.0000 </r>
       <r>   -0.5371    1.0000 </r>
       <r>   -0.5007    1.0000 </r>
       <r>   -0.4849    1.0000 </r>
       <r>   -0.4393    1.0000 </r>
       <r>   -0.1712    1.0000 </r>
       <r>   -0.1564    1.0000 </r>
       <r>   -0.1508    1.0000 </r>
       <r>   -0.1247    1.0000 </r>
       <r>    0.0488    1.0000 </r>
       <r>    0.1673    1.0000 </r>
       <r>    0.3396    1.0000 </r>
       <r>    0.4309    1.0000 </r>
       <r>    0.5409    1.0000 </r>
       <r>    0.5764    1.0000 </r>
       <r>    0.6375    1.0000 </r>
       <r>    0.7186    1.0000 </r>
       <r>    0.7231    1.0000 </r>
       <r>    0.7385    1.0000 </r>
       <r>    0.7685    1.0000 </r>
       <r>    0.7726    1.0000 </r>
       <r>    0.8282    1.0000 </r>
       <r>    0.8880    1.0000 </r>
       <r>    0.9590    1.0000 </r>
       <r>    0.9687    1.0000 </r>
       <r>    1.0039    1.0000 </r>
       <r>    1.0203    1.0000 </r>
       <r>    1.0643    1.0000 </r>
       <r>    1.1167    1.0000 </r>
       <r>    1.1617    1.0000 </r>
       <r>    1.2325    1.0000 </r>
       <r>    1.2688    1.0000 </r>
       <r>    1.2856    1.0000 </r>
       <r>    1.3310    1.0000 </r>
       <r>    1.4191    1.0000 </r>
       <r>    1.4615    1.0000 </r>
       <r>    1.4715    1.0000 </r>
       <r>    1.5247    1.0000 </r>
       <r>    1.5643    1.0000 </r>
       <r>    1.6144    1.0000 </r>
       <r>    1.6206    1.0000 </r>
       <r>    1.6958    1.0000 </r>
       <r>    1.7667    1.0000 </r>
       <r>    1.7885    1.0000 </r>
       <r>    1.8271    1.0000 </r>
       <r>    1.8747    1.0000 </r>
       <r>    1.8791    1.0000 </r>
       <r>    1.9139    1.0000 </r>
       <r>    2.0043    1.0000 </r>
       <r>    2.0725    1.0000 </r>
       <r>    2.1364    1.0000 </r>
       <r>    2.2098    1.0000 </r>
       <r>    2.2643    1.0000 </r>
       <r>    2.3150    1.0000 </r>
       <r>    2.3968    1.0000 </r>
       <r>    2.5470    1.0000 </r>
       <r>    2.5789    1.0000 </r>
       <r>    2.5819    1.0000 </r>
       <r>    2.5929    1.0000 </r>
       <r>    2.6021    1.0000 </r>
       <r>    2.6244    1.0000 </r>
       <r>    2.6391    1.0000 </r>
       <r>    2.6637    1.0000 </r>
       <r>    2.6964    1.0000 </r>
       <r>    2.7084    1.0000 </r>
       <r>    2.7396    1.0000 </r>
       <r>    2.7793    1.0000 </r>
       <r>    2.8068    1.0000 </r>
       <r>    2.8257    1.0000 </r>
       <r>    2.8728    1.0000 </r>
       <r>    2.9068    1.0000 </r>
       <r>    2.9327    1.0000 </r>
       <r>    2.9480    1.0000 </r>
       <r>    2.9823    1.0000 </r>
       <r>    3.0068    1.0000 </r>
       <r>    3.0568    1.0000 </r>
       <r>    3.1066    1.0000 </r>
       <r>    3.1097    1.0000 </r>
       <r>    3.1640    1.0000 </r>
       <r>    3.1704    1.0000 </r>
       <r>    3.1840    1.0000 </r>
       <r>    3.1886    1.0000 </r>
       <r>    3.2446    1.0000 </r>
       <r>    3.3011    1.0000 </r>
       <r>    3.3391    1.0000 </r>
       <r>    3.4021    1.0000 </r>
       <r>    3.4660    1.0000 </r>
       <r>    3.4794    1.0000 </r>
       <r>    3.7156    1.0000 </r>
       <r>    4.1971    1.0000 </r>
       <r>    4.2009    1.0000 </r>
       <r>    4.2389    1.0000 </r>
       <r>    4.2395    1.0000 </r>
       <r>    5.0616    0.0000 </r>
       <r>    5.0653    0.0000 </r>
       <r>    5.1744    0.0000 </r>
       <r>    5.1835    0.0000 </r>
       <r>    5.7534    0.0000 </r>
       <r>    5.7563    0.0000 </r>
       <r>    5.8268    0.0000 </r>
       <r>    5.8275    0.0000 </r>
       <r>    6.1123    0.0000 </r>
       <r>    6.1257    0.0000 </r>
       <r>    6.1451    0.0000 </r>
       <r>    6.1593    0.0000 </r>
       <r>    6.2469    0.0000 </r>
       <r>    6.2519    0.0000 </r>
       <r>    6.2750    0.0000 </r>
       <r>    6.2824    0.0000 </r>
       <r>    7.1235    0.0000 </r>
       <r>    7.1356    0.0000 </r>
       <r>    7.3230    0.0000 </r>
       <r>    7.3333    0.0000 </r>
       <r>    7.8170    0.0000 </r>
       <r>    7.8958    0.0000 </r>
       <r>    7.9360    0.0000 </r>
       <r>    7.9489    0.0000 </r>
       <r>    7.9956    0.0000 </r>
       <r>    8.0653    0.0000 </r>
       <r>    8.1038    0.0000 </r>
       <r>    8.2174    0.0000 </r>
       <r>    8.4104    0.0000 </r>
       <r>    8.6506    0.0000 </r>
       <r>    8.6799    0.0000 </r>
       <r>    8.7870    0.0000 </r>
       <r>    8.7949    0.0000 </r>
       <r>    8.8784    0.0000 </r>
       <r>    8.9502    0.0000 </r>
       <r>    8.9908    0.0000 </r>
       <r>    9.0491    0.0000 </r>
       <r>    9.0610    0.0000 </r>
       <r>    9.0891    0.0000 </r>
       <r>    9.1393    0.0000 </r>
       <r>    9.1426    0.0000 </r>
       <r>    9.1797    0.0000 </r>
       <r>    9.2277    0.0000 </r>
       <r>    9.2573    0.0000 </r>
       <r>    9.4412    0.0000 </r>
       <r>    9.5334    0.0000 </r>
      </set>
      <set comment="kpoint 2">
       <r>  -40.2665    1.0000 </r>
       <r>  -40.0569    1.0000 </r>
       <r>  -40.0089    1.0000 </r>
       <r>  -39.8806    1.0000 </r>
       <r>  -39.7986    1.0000 </r>
       <r>  -39.7841    1.0000 </r>
       <r>  -39.7111    1.0000 </r>
       <r>  -39.5955    1.0000 </r>
       <r>  -39.5589    1.0000 </r>
       <r>  -39.3714    1.0000 </r>
       <r>  -18.9232    1.0000 </r>
       <r>  -18.9197    1.0000 </r>
       <r>  -18.8527    1.0000 </r>
       <r>  -18.8481    1.0000 </r>
       <r>  -18.8457    1.0000 </r>
       <r>  -18.8410    1.0000 </r>
       <r>  -18.7499    1.0000 </r>
       <r>  -18.7488    1.0000 </r>
       <r>  -18.7362    1.0000 </r>
       <r>  -18.7274    1.0000 </r>
       <r>  -18.7084    1.0000 </r>
       <r>  -18.7062    1.0000 </r>
       <r>  -18.6984    1.0000 </r>
       <r>  -18.6961    1.0000 </r>
       <r>  -18.6908    1.0000 </r>
       <r>  -18.6872    1.0000 </r>
       <r>  -18.6439    1.0000 </r>
       <r>  -18.6417    1.0000 </r>
       <r>  -18.6375    1.0000 </r>
       <r>  -18.6360    1.0000 </r>
       <r>  -18.6348    1.0000 </r>
       <r>  -18.6345    1.0000 </r>
       <r>  -18.6325    1.0000 </r>
       <r>  -18.6309    1.0000 </r>
       <r>  -18.6292    1.0000 </r>
       <r>  -18.6290    1.0000 </r>
       <r>  -18.6288    1.0000 </r>
       <r>  -18.6269    1.0000 </r>
       <r>  -18.6258    1.0000 </r>
       <r>  -18.6253    1.0000 </r>
       <r>  -18.6240    1.0000 </r>
       <r>  -18.6222    1.0000 </r>
       <r>  -18.6211    1.0000 </r>
       <r>  -18.6198    1.0000 </r>
       <r>  -18.6168    1.0000 </r>
       <r>  -18.6152    1.0000 </r>
       <r>  -18.6138    1.0000 </r>
       <r>  -18.6121    1.0000 </r>
       <r>  -18.6111    1.0000 </r>
       <r>  -18.6048    1.0000 </r>
       <r>  -18.5593    1.0000 </r>
       <r>  -18.5562    1.0000 </r>
       <r>  -18.5519    1.0000 </r>
       <r>  -18.5463    1.0000 </r>
       <r>  -18.5446    1.0000 </r>
       <r>  -18.5429    1.0000 </r>
       <r>  -18.5361    1.0000 </r>
       <r>  -18.5347    1.0000 </r>
       <r>  -18.5340    1.0000 </r>
       <r>  -18.5299    1.0000 </r>
       <r>  -18.4903    1.0000 </r>
       <r>  -18.4871    1.0000 </r>
       <r>  -18.4778    1.0000 </r>
       <r>  -18.4762    1.0000 </r>
       <r>  -18.4752    1.0000 </r>
       <r>  -18.4733    1.0000 </r>
       <r>  -18.4722    1.0000 </r>
       <r>  -18.4718    1.0000 </r>
       <r>  -18.4718    1.0000 </r>
       <r>  -18.4687    1.0000 </r>
       <r>  -18.4677    1.0000 </r>
       <r>  -18.4672    1.0000 </r>
       <r>  -18.4670    1.0000 </r>
       <r>  -18.4626    1.0000 </r>
       <r>  -18.4581    1.0000 </r>
       <r>  -18.4474    1.0000 </r>
       <r>  -18.4026    1.0000 </r>
       <r>  -18.3945    1.0000 </r>
       <r>  -18.3890    1.0000 </r>
       <r>  -18.3861    1.0000 </r>
       <r>  -18.3847    1.0000 </r>
       <r>  -18.3826    1.0000 </r>
       <r>  -18.3760    1.0000 </r>
       <r>  -18.3735    1.0000 </r>
       <r>  -18.2969    1.0000 </r>
       <r>  -18.2969    1.0000 </r>
       <r>  -18.1876    1.0000 </r>
       <r>  -18.1820    1.0000 </r>
       <r>  -18.1681    1.0000 </r>
       <r>  -18.1604    1.0000 </r>
       <r>  -13.5644    1.0000 </r>
       <r>  -13.4586    1.0000 </r>
       <r>  -12.8688    1.0000 </r>
       <r>  -12.7842    1.0000 </r>
       <r>  -12.7615    1.0000 </r>
       <r>  -12.7344    1.0000 </r>
       <r>  -12.7218    1.0000 </r>
       <r>  -12.7023    1.0000 </r>
       <r>  -12.6468    1.0000 </r>
       <r>  -12.6384    1.0000 </r>
       <r>  -12.6211    1.0000 </r>
       <r>  -12.6124    1.0000 </r>
       <r>  -12.5798    1.0000 </r>
       <r>  -12.5304    1.0000 </r>
       <r>  -11.9746    1.0000 </r>
       <r>  -11.9135    1.0000 </r>
       <r>   -9.1143    1.0000 </r>
       <r>   -9.0917    1.0000 </r>
       <r>   -8.8401    1.0000 </r>
       <r>   -8.8158    1.0000 </r>
       <r>   -8.3147    1.0000 </r>
       <r>   -8.3099    1.0000 </r>
       <r>   -8.3021    1.0000 </r>
       <r>   -8.2991    1.0000 </r>
       <r>   -8.1264    1.0000 </r>
       <r>   -8.1225    1.0000 </r>
       <r>   -8.1164    1.0000 </r>
       <r>   -8.1134    1.0000 </r>
       <r>   -7.6796    1.0000 </r>
       <r>   -7.6772    1.0000 </r>
       <r>   -7.5701    1.0000 </r>
       <r>   -7.5669    1.0000 </r>
       <r>   -5.9707    1.0000 </r>
       <r>   -5.9311    1.0000 </r>
       <r>   -5.8792    1.0000 </r>
       <r>   -5.8740    1.0000 </r>
       <r>   -5.8372    1.0000 </r>
       <r>   -5.7594    1.0000 </r>
       <r>   -5.7299    1.0000 </r>
       <r>   -5.7224    1.0000 </r>
       <r>   -5.6263    1.0000 </r>
       <r>   -5.5781    1.0000 </r>
       <r>   -5.4917    1.0000 </r>
       <r>   -5.4759    1.0000 </r>
       <r>   -4.4160    1.0000 </r>
       <r>   -4.4063    1.0000 </r>
       <r>   -4.2491    1.0000 </r>
       <r>   -4.2362    1.0000 </r>
       <r>   -1.1667    1.0000 </r>
       <r>   -1.0959    1.0000 </r>
       <r>   -0.8076    1.0000 </r>
       <r>   -0.7868    1.0000 </r>
       <r>   -0.4627    1.0000 </r>
       <r>   -0.2948    1.0000 </r>
       <r>    0.0089    1.0000 </r>
       <r>    0.0318    1.0000 </r>
       <r>    0.0842    1.0000 </r>
       <r>    0.1186    1.0000 </r>
       <r>    0.1730    1.0000 </r>
       <r>    0.2005    1.0000 </r>
       <r>    0.2471    1.0000 </r>
       <r>    0.3112    1.0000 </r>
       <r>    0.3455    1.0000 </r>
       <r>    0.3541    1.0000 </r>
       <r>    0.5504    1.0000 </r>
       <r>    0.5749    1.0000 </r>
       <r>    0.5885    1.0000 </r>
       <r>    0.6094    1.0000 </r>
       <r>    0.6199    1.0000 </r>
       <r>    0.6381    1.0000 </r>
       <r>    0.6980    1.0000 </r>
       <r>    0.7184    1.0000 </r>
       <r>    0.7581    1.0000 </r>
       <r>    0.7922    1.0000 </r>
       <r>    0.9101    1.0000 </r>
       <r>    0.9413    1.0000 </r>
       <r>    0.9791    1.0000 </r>
       <r>    1.0083    1.0000 </r>
       <r>    1.0933    1.0000 </r>
       <r>    1.1481    1.0000 </r>
       <r>    1.1682    1.0000 </r>
       <r>    1.2693    1.0000 </r>
       <r>    1.2848    1.0000 </r>
       <r>    1.3042    1.0000 </r>
       <r>    1.3068    1.0000 </r>
       <r>    1.3774    1.0000 </r>
       <r>    1.4437    1.0000 </r>
       <r>    1.4524    1.0000 </r>
       <r>    1.4751    1.0000 </r>
       <r>    1.5147    1.0000 </r>
       <r>    1.5217    1.0000 </r>
       <r>    1.5919    1.0000 </r>
       <r>    1.6791    1.0000 </r>
       <r>    1.7167    1.0000 </r>
       <r>    1.7506    1.0000 </r>
       <r>    1.7764    1.0000 </r>
       <r>    1.8296    1.0000 </r>
       <r>    1.8774    1.0000 </r>
       <r>    1.9287    1.0000 </r>
       <r>    1.9429    1.0000 </r>
       <r>    1.9676    1.0000 </r>
       <r>    2.0119    1.0000 </r>
       <r>    2.0739    1.0000 </r>
       <r>    2.0803    1.0000 </r>
       <r>    2.0937    1.0000 </r>
       <r>    2.1589    1.0000 </r>
       <r>    2.1894    1.0000 </r>
       <r>    2.2636    1.0000 </r>
       <r>    2.3245    1.0000 </r>
       <r>    2.3620    1.0000 </r>
       <r>    2.4109    1.0000 </r>
       <r>    2.4952    1.0000 </r>
       <r>    2.5086    1.0000 </r>
       <r>    2.5643    1.0000 </r>
       <r>    2.5819    1.0000 </r>
       <r>    2.6493    1.0000 </r>
       <r>    2.6574    1.0000 </r>
       <r>    2.6684    1.0000 </r>
       <r>    2.7306    1.0000 </r>
       <r>    2.7336    1.0000 </r>
       <r>    2.7715    1.0000 </r>
       <r>    2.7997    1.0000 </r>
       <r>    2.8247    1.0000 </r>
       <r>    2.8765    1.0000 </r>
       <r>    2.8860    1.0000 </r>
       <r>    2.9228    1.0000 </r>
       <r>    2.9500    1.0000 </r>
       <r>    2.9633    1.0000 </r>
       <r>    3.0383    1.0000 </r>
       <r>    3.0761    1.0000 </r>
       <r>    3.0981    1.0000 </r>
       <r>    3.1303    1.0000 </r>
       <r>    3.1504    1.0000 </r>
       <r>    3.2304    1.0000 </r>
       <r>    3.2884    1.0000 </r>
       <r>    3.4103    1.0000 </r>
       <r>    3.4865    1.0000 </r>
       <r>    3.5182    1.0000 </r>
       <r>    3.5362    1.0000 </r>
       <r>    3.5609    1.0000 </r>
       <r>    3.5759    1.0000 </r>
       <r>    3.6172    1.0000 </r>
       <r>    3.6353    1.0000 </r>
       <r>    3.8739    1.0000 </r>
       <r>    5.6802    0.0000 </r>
       <r>    5.6920    0.0000 </r>
       <r>    5.6997    0.0000 </r>
       <r>    5.7044    0.0000 </r>
       <r>    5.7741    0.0000 </r>
       <r>    5.7800    0.0000 </r>
       <r>    5.8059    0.0000 </r>
       <r>    5.8127    0.0000 </r>
       <r>    7.2204    0.0000 </r>
       <r>    7.2398    0.0000 </r>
       <r>    7.3023    0.0000 </r>
       <r>    7.3329    0.0000 </r>
       <r>    7.4091    0.0000 </r>
       <r>    7.4292    0.0000 </r>
       <r>    7.4681    0.0000 </r>
       <r>    7.4822    0.0000 </r>
       <r>    7.4918    0.0000 </r>
       <r>    7.5059    0.0000 </r>
       <r>    7.5194    0.0000 </r>
       <r>    7.5514    0.0000 </r>
       <r>    7.8452    0.0000 </r>
       <r>    7.8672    0.0000 </r>
       <r>    7.8736    0.0000 </r>
       <r>    7.8807    0.0000 </r>
       <r>    7.8844    0.0000 </r>
       <r>    7.9251    0.0000 </r>
       <r>    7.9633    0.0000 </r>
       <r>    7.9773    0.0000 </r>
       <r>    8.0004    0.0000 </r>
       <r>    8.0429    0.0000 </r>
       <r>    8.0616    0.0000 </r>
       <r>    8.1429    0.0000 </r>
       <r>    8.3018    0.0000 </r>
       <r>    8.3660    0.0000 </r>
       <r>    8.3838    0.0000 </r>
       <r>    8.6052    0.0000 </r>
       <r>    8.6827    0.0000 </r>
       <r>    8.7137    0.0000 </r>
       <r>    8.7754    0.0000 </r>
       <r>    8.7866    0.0000 </r>
       <r>    8.8258    0.0000 </r>
       <r>    8.8438    0.0000 </r>
       <r>    8.9348    0.0000 </r>
       <r>    8.9450    0.0000 </r>
       <r>    9.2063    0.0000 </r>
       <r>    9.2305    0.0000 </r>
      </set>
      <set comment="kpoint 3">
       <r>  -40.2665    1.0000 </r>
       <r>  -40.0569    1.0000 </r>
       <r>  -40.0089    1.0000 </r>
       <r>  -39.8805    1.0000 </r>
       <r>  -39.7986    1.0000 </r>
       <r>  -39.7841    1.0000 </r>
       <r>  -39.7111    1.0000 </r>
       <r>  -39.5955    1.0000 </r>
       <r>  -39.5589    1.0000 </r>
       <r>  -39.3714    1.0000 </r>
       <r>  -18.9234    1.0000 </r>
       <r>  -18.9195    1.0000 </r>
       <r>  -18.8527    1.0000 </r>
       <r>  -18.8482    1.0000 </r>
       <r>  -18.8457    1.0000 </r>
       <r>  -18.8410    1.0000 </r>
       <r>  -18.7499    1.0000 </r>
       <r>  -18.7488    1.0000 </r>
       <r>  -18.7362    1.0000 </r>
       <r>  -18.7274    1.0000 </r>
       <r>  -18.7083    1.0000 </r>
       <r>  -18.7061    1.0000 </r>
       <r>  -18.6985    1.0000 </r>
       <r>  -18.6961    1.0000 </r>
       <r>  -18.6909    1.0000 </r>
       <r>  -18.6873    1.0000 </r>
       <r>  -18.6441    1.0000 </r>
       <r>  -18.6420    1.0000 </r>
       <r>  -18.6378    1.0000 </r>
       <r>  -18.6367    1.0000 </r>
       <r>  -18.6348    1.0000 </r>
       <r>  -18.6337    1.0000 </r>
       <r>  -18.6327    1.0000 </r>
       <r>  -18.6312    1.0000 </r>
       <r>  -18.6292    1.0000 </r>
       <r>  -18.6283    1.0000 </r>
       <r>  -18.6279    1.0000 </r>
       <r>  -18.6268    1.0000 </r>
       <r>  -18.6254    1.0000 </r>
       <r>  -18.6252    1.0000 </r>
       <r>  -18.6237    1.0000 </r>
       <r>  -18.6224    1.0000 </r>
       <r>  -18.6204    1.0000 </r>
       <r>  -18.6201    1.0000 </r>
       <r>  -18.6176    1.0000 </r>
       <r>  -18.6153    1.0000 </r>
       <r>  -18.6137    1.0000 </r>
       <r>  -18.6124    1.0000 </r>
       <r>  -18.6112    1.0000 </r>
       <r>  -18.6050    1.0000 </r>
       <r>  -18.5593    1.0000 </r>
       <r>  -18.5562    1.0000 </r>
       <r>  -18.5519    1.0000 </r>
       <r>  -18.5462    1.0000 </r>
       <r>  -18.5446    1.0000 </r>
       <r>  -18.5428    1.0000 </r>
       <r>  -18.5362    1.0000 </r>
       <r>  -18.5347    1.0000 </r>
       <r>  -18.5340    1.0000 </r>
       <r>  -18.5299    1.0000 </r>
       <r>  -18.4902    1.0000 </r>
       <r>  -18.4871    1.0000 </r>
       <r>  -18.4778    1.0000 </r>
       <r>  -18.4762    1.0000 </r>
       <r>  -18.4752    1.0000 </r>
       <r>  -18.4732    1.0000 </r>
       <r>  -18.4722    1.0000 </r>
       <r>  -18.4718    1.0000 </r>
       <r>  -18.4718    1.0000 </r>
       <r>  -18.4687    1.0000 </r>
       <r>  -18.4677    1.0000 </r>
       <r>  -18.4672    1.0000 </r>
       <r>  -18.4670    1.0000 </r>
       <r>  -18.4626    1.0000 </r>
       <r>  -18.4581    1.0000 </r>
       <r>  -18.4474    1.0000 </r>
       <r>  -18.4026    1.0000 </r>
       <r>  -18.3945    1.0000 </r>
       <r>  -18.3890    1.0000 </r>
       <r>  -18.3861    1.0000 </r>
       <r>  -18.3846    1.0000 </r>
       <r>  -18.3826    1.0000 </r>
       <r>  -18.3760    1.0000 </r>
       <r>  -18.3735    1.0000 </r>
       <r>  -18.2973    1.0000 </r>
       <r>  -18.2965    1.0000 </r>
       <r>  -18.1876    1.0000 </r>
       <r>  -18.1820    1.0000 </r>
       <r>  -18.1681    1.0000 </r>
       <r>  -18.1604    1.0000 </r>
       <r>  -13.5650    1.0000 </r>
       <r>  -13.4579    1.0000 </r>
       <r>  -12.8716    1.0000 </r>
       <r>  -12.7854    1.0000 </r>
       <r>  -12.7520    1.0000 </r>
       <r>  -12.7449    1.0000 </r>
       <r>  -12.7114    1.0000 </r>
       <r>  -12.6783    1.0000 </r>
       <r>  -12.6644    1.0000 </r>
       <r>  -12.6580    1.0000 </r>
       <r>  -12.6210    1.0000 </r>
       <r>  -12.6059    1.0000 </r>
       <r>  -12.5799    1.0000 </r>
       <r>  -12.5302    1.0000 </r>
       <r>  -11.9734    1.0000 </r>
       <r>  -11.9153    1.0000 </r>
       <r>   -9.3062    1.0000 </r>
       <r>   -9.0281    1.0000 </r>
       <r>   -8.5404    1.0000 </r>
       <r>   -8.5078    1.0000 </r>
       <r>   -8.4928    1.0000 </r>
       <r>   -8.4498    1.0000 </r>
       <r>   -8.2796    1.0000 </r>
       <r>   -8.2499    1.0000 </r>
       <r>   -8.2279    1.0000 </r>
       <r>   -8.1894    1.0000 </r>
       <r>   -8.0221    1.0000 </r>
       <r>   -8.0207    1.0000 </r>
       <r>   -7.9858    1.0000 </r>
       <r>   -7.9841    1.0000 </r>
       <r>   -7.3487    1.0000 </r>
       <r>   -7.3482    1.0000 </r>
       <r>   -6.3513    1.0000 </r>
       <r>   -6.3477    1.0000 </r>
       <r>   -6.3202    1.0000 </r>
       <r>   -6.3168    1.0000 </r>
       <r>   -5.5315    1.0000 </r>
       <r>   -5.4659    1.0000 </r>
       <r>   -5.3854    1.0000 </r>
       <r>   -5.3743    1.0000 </r>
       <r>   -5.3694    1.0000 </r>
       <r>   -5.2583    1.0000 </r>
       <r>   -5.1416    1.0000 </r>
       <r>   -5.0998    1.0000 </r>
       <r>   -5.0718    1.0000 </r>
       <r>   -4.9984    1.0000 </r>
       <r>   -3.8679    1.0000 </r>
       <r>   -3.5576    1.0000 </r>
       <r>   -1.3474    1.0000 </r>
       <r>   -1.2609    1.0000 </r>
       <r>   -1.2159    1.0000 </r>
       <r>   -1.0445    1.0000 </r>
       <r>   -0.4223    1.0000 </r>
       <r>   -0.4106    1.0000 </r>
       <r>   -0.3983    1.0000 </r>
       <r>   -0.3728    1.0000 </r>
       <r>   -0.3531    1.0000 </r>
       <r>   -0.3009    1.0000 </r>
       <r>   -0.2719    1.0000 </r>
       <r>   -0.2201    1.0000 </r>
       <r>   -0.1022    1.0000 </r>
       <r>   -0.0244    1.0000 </r>
       <r>    0.1436    1.0000 </r>
       <r>    0.2713    1.0000 </r>
       <r>    0.2934    1.0000 </r>
       <r>    0.3395    1.0000 </r>
       <r>    0.4182    1.0000 </r>
       <r>    0.4930    1.0000 </r>
       <r>    0.5276    1.0000 </r>
       <r>    0.6812    1.0000 </r>
       <r>    0.7420    1.0000 </r>
       <r>    0.7640    1.0000 </r>
       <r>    0.7899    1.0000 </r>
       <r>    0.8156    1.0000 </r>
       <r>    0.8351    1.0000 </r>
       <r>    0.8567    1.0000 </r>
       <r>    1.0045    1.0000 </r>
       <r>    1.1030    1.0000 </r>
       <r>    1.1225    1.0000 </r>
       <r>    1.2406    1.0000 </r>
       <r>    1.2686    1.0000 </r>
       <r>    1.3454    1.0000 </r>
       <r>    1.3620    1.0000 </r>
       <r>    1.4636    1.0000 </r>
       <r>    1.5300    1.0000 </r>
       <r>    1.5927    1.0000 </r>
       <r>    1.6102    1.0000 </r>
       <r>    1.6523    1.0000 </r>
       <r>    1.6850    1.0000 </r>
       <r>    1.7147    1.0000 </r>
       <r>    1.7739    1.0000 </r>
       <r>    1.7830    1.0000 </r>
       <r>    1.8220    1.0000 </r>
       <r>    1.8638    1.0000 </r>
       <r>    1.8876    1.0000 </r>
       <r>    1.9210    1.0000 </r>
       <r>    1.9693    1.0000 </r>
       <r>    1.9982    1.0000 </r>
       <r>    2.0507    1.0000 </r>
       <r>    2.1095    1.0000 </r>
       <r>    2.1416    1.0000 </r>
       <r>    2.1722    1.0000 </r>
       <r>    2.2788    1.0000 </r>
       <r>    2.3265    1.0000 </r>
       <r>    2.4315    1.0000 </r>
       <r>    2.4716    1.0000 </r>
       <r>    2.5113    1.0000 </r>
       <r>    2.5276    1.0000 </r>
       <r>    2.5523    1.0000 </r>
       <r>    2.5771    1.0000 </r>
       <r>    2.5855    1.0000 </r>
       <r>    2.5947    1.0000 </r>
       <r>    2.6032    1.0000 </r>
       <r>    2.6047    1.0000 </r>
       <r>    2.6881    1.0000 </r>
       <r>    2.7086    1.0000 </r>
       <r>    2.7512    1.0000 </r>
       <r>    2.7669    1.0000 </r>
       <r>    2.8106    1.0000 </r>
       <r>    2.8250    1.0000 </r>
       <r>    2.8562    1.0000 </r>
       <r>    2.8725    1.0000 </r>
       <r>    2.8858    1.0000 </r>
       <r>    2.9331    1.0000 </r>
       <r>    2.9587    1.0000 </r>
       <r>    2.9738    1.0000 </r>
       <r>    3.0180    1.0000 </r>
       <r>    3.0340    1.0000 </r>
       <r>    3.0541    1.0000 </r>
       <r>    3.0895    1.0000 </r>
       <r>    3.1999    1.0000 </r>
       <r>    3.3301    1.0000 </r>
       <r>    3.3480    1.0000 </r>
       <r>    3.3889    1.0000 </r>
       <r>    3.4185    1.0000 </r>
       <r>    3.4401    1.0000 </r>
       <r>    3.4606    1.0000 </r>
       <r>    3.4874    1.0000 </r>
       <r>    3.5698    1.0000 </r>
       <r>    3.6660    1.0000 </r>
       <r>    4.2464    1.0000 </r>
       <r>    4.2493    1.0000 </r>
       <r>    4.2888    1.0000 </r>
       <r>    4.2908    1.0000 </r>
       <r>    5.1353    0.0000 </r>
       <r>    5.1381    0.0000 </r>
       <r>    5.2411    0.0000 </r>
       <r>    5.2420    0.0000 </r>
       <r>    5.7617    0.0000 </r>
       <r>    5.7644    0.0000 </r>
       <r>    5.8337    0.0000 </r>
       <r>    5.8371    0.0000 </r>
       <r>    6.1695    0.0000 </r>
       <r>    6.1804    0.0000 </r>
       <r>    6.1948    0.0000 </r>
       <r>    6.2071    0.0000 </r>
       <r>    6.2591    0.0000 </r>
       <r>    6.2624    0.0000 </r>
       <r>    6.2888    0.0000 </r>
       <r>    6.2960    0.0000 </r>
       <r>    6.7770    0.0000 </r>
       <r>    6.8535    0.0000 </r>
       <r>    7.0670    0.0000 </r>
       <r>    7.0683    0.0000 </r>
       <r>    7.2734    0.0000 </r>
       <r>    7.3669    0.0000 </r>
       <r>    7.4251    0.0000 </r>
       <r>    7.5523    0.0000 </r>
       <r>    7.7500    0.0000 </r>
       <r>    7.8433    0.0000 </r>
       <r>    7.9493    0.0000 </r>
       <r>    7.9905    0.0000 </r>
       <r>    8.0078    0.0000 </r>
       <r>    8.3186    0.0000 </r>
       <r>    8.3502    0.0000 </r>
       <r>    8.4729    0.0000 </r>
       <r>    8.7302    0.0000 </r>
       <r>    8.7681    0.0000 </r>
       <r>    8.9614    0.0000 </r>
       <r>    8.9783    0.0000 </r>
       <r>    9.0311    0.0000 </r>
       <r>    9.0698    0.0000 </r>
       <r>    9.0851    0.0000 </r>
       <r>    9.0899    0.0000 </r>
       <r>    9.1134    0.0000 </r>
       <r>    9.1560    0.0000 </r>
       <r>    9.1904    0.0000 </r>
       <r>    9.2047    0.0000 </r>
       <r>    9.5904    0.0000 </r>
       <r>    9.6688    0.0000 </r>
      </set>
      <set comment="kpoint 4">
       <r>  -40.2665    1.0000 </r>
       <r>  -40.0569    1.0000 </r>
       <r>  -40.0089    1.0000 </r>
       <r>  -39.8805    1.0000 </r>
       <r>  -39.7985    1.0000 </r>
       <r>  -39.7841    1.0000 </r>
       <r>  -39.7111    1.0000 </r>
       <r>  -39.5955    1.0000 </r>
       <r>  -39.5589    1.0000 </r>
       <r>  -39.3714    1.0000 </r>
       <r>  -18.9233    1.0000 </r>
       <r>  -18.9195    1.0000 </r>
       <r>  -18.8527    1.0000 </r>
       <r>  -18.8481    1.0000 </r>
       <r>  -18.8457    1.0000 </r>
       <r>  -18.8410    1.0000 </r>
       <r>  -18.7499    1.0000 </r>
       <r>  -18.7488    1.0000 </r>
       <r>  -18.7362    1.0000 </r>
       <r>  -18.7274    1.0000 </r>
       <r>  -18.7084    1.0000 </r>
       <r>  -18.7062    1.0000 </r>
       <r>  -18.6984    1.0000 </r>
       <r>  -18.6961    1.0000 </r>
       <r>  -18.6908    1.0000 </r>
       <r>  -18.6872    1.0000 </r>
       <r>  -18.6439    1.0000 </r>
       <r>  -18.6417    1.0000 </r>
       <r>  -18.6375    1.0000 </r>
       <r>  -18.6359    1.0000 </r>
       <r>  -18.6348    1.0000 </r>
       <r>  -18.6345    1.0000 </r>
       <r>  -18.6325    1.0000 </r>
       <r>  -18.6309    1.0000 </r>
       <r>  -18.6292    1.0000 </r>
       <r>  -18.6290    1.0000 </r>
       <r>  -18.6288    1.0000 </r>
       <r>  -18.6269    1.0000 </r>
       <r>  -18.6258    1.0000 </r>
       <r>  -18.6252    1.0000 </r>
       <r>  -18.6240    1.0000 </r>
       <r>  -18.6222    1.0000 </r>
       <r>  -18.6211    1.0000 </r>
       <r>  -18.6198    1.0000 </r>
       <r>  -18.6169    1.0000 </r>
       <r>  -18.6152    1.0000 </r>
       <r>  -18.6137    1.0000 </r>
       <r>  -18.6123    1.0000 </r>
       <r>  -18.6109    1.0000 </r>
       <r>  -18.6048    1.0000 </r>
       <r>  -18.5593    1.0000 </r>
       <r>  -18.5562    1.0000 </r>
       <r>  -18.5519    1.0000 </r>
       <r>  -18.5463    1.0000 </r>
       <r>  -18.5446    1.0000 </r>
       <r>  -18.5429    1.0000 </r>
       <r>  -18.5362    1.0000 </r>
       <r>  -18.5347    1.0000 </r>
       <r>  -18.5340    1.0000 </r>
       <r>  -18.5299    1.0000 </r>
       <r>  -18.4902    1.0000 </r>
       <r>  -18.4870    1.0000 </r>
       <r>  -18.4778    1.0000 </r>
       <r>  -18.4762    1.0000 </r>
       <r>  -18.4752    1.0000 </r>
       <r>  -18.4733    1.0000 </r>
       <r>  -18.4722    1.0000 </r>
       <r>  -18.4718    1.0000 </r>
       <r>  -18.4718    1.0000 </r>
       <r>  -18.4687    1.0000 </r>
[...]
       <r>    8.8636    0.0000 </r>
       <r>    8.8844    0.0000 </r>
       <r>    8.9011    0.0000 </r>
       <r>    8.9170    0.0000 </r>
       <r>    8.9336    0.0000 </r>
      </set>
     </set>
    </set>
   </array>
  </eigenvalues>
  <separator name="orbital magnetization" >
   <v name="MAGDIPOLOUT">      0.00000000      0.00000000      0.00000000</v>
  </separator>
  <dos>
   <i name="efermi">      4.33817839 </i>
   <total>
    <array>
     <dimension dim="1">gridpoints</dimension>
     <dimension dim="2">spin</dimension>
     <field>energy</field>
     <field>total</field>
     <field>integrated</field>
     <set>
      <set comment="spin 1">
       <r>   -42.7632     0.0000     0.0000 </r>
       <r>   -42.5801     0.0000     0.0000 </r>
       <r>   -42.3970     0.0000     0.0000 </r>
       <r>   -42.2139     0.0000     0.0000 </r>
       <r>   -42.0308     0.0000     0.0000 </r>
       <r>   -41.8477     0.0000     0.0000 </r>
       <r>   -41.6647     0.0000     0.0000 </r>
       <r>   -41.4816     0.0000     0.0000 </r>
       <r>   -41.2985     0.0000     0.0000 </r>
       <r>   -41.1154     0.0000     0.0000 </r>
       <r>   -40.9323     0.0000     0.0000 </r>
       <r>   -40.7492     0.0000     0.0000 </r>
       <r>   -40.5661     0.0000     0.0000 </r>
       <r>   -40.3830     0.0000     0.0000 </r>
       <r>   -40.1999     0.0000     2.0000 </r>
       <r>   -40.0168     0.0000     4.0000 </r>
       <r>   -39.8337     0.0000     8.0000 </r>
       <r>   -39.6506     0.0000    14.0000 </r>
       <r>   -39.4675     0.0000    18.0000 </r>
       <r>   -39.2844     0.0000    20.0000 </r>
       <r>   -39.1013     0.0000    20.0000 </r>
       <r>   -38.9182     0.0000    20.0000 </r>
       <r>   -38.7351     0.0000    20.0000 </r>
       <r>   -38.5520     0.0000    20.0000 </r>
       <r>   -38.3689     0.0000    20.0000 </r>
       <r>   -38.1858     0.0000    20.0000 </r>
       <r>   -38.0027     0.0000    20.0000 </r>
       <r>   -37.8196     0.0000    20.0000 </r>
       <r>   -37.6365     0.0000    20.0000 </r>
       <r>   -37.4534     0.0000    20.0000 </r>
       <r>   -37.2704     0.0000    20.0000 </r>
       <r>   -37.0873     0.0000    20.0000 </r>
       <r>   -36.9042     0.0000    20.0000 </r>
       <r>   -36.7211     0.0000    20.0000 </r>
       <r>   -36.5380     0.0000    20.0000 </r>
       <r>   -36.3549     0.0000    20.0000 </r>
       <r>   -36.1718     0.0000    20.0000 </r>
       <r>   -35.9887     0.0000    20.0000 </r>
       <r>   -35.8056     0.0000    20.0000 </r>
       <r>   -35.6225     0.0000    20.0000 </r>
       <r>   -35.4394     0.0000    20.0000 </r>
       <r>   -35.2563     0.0000    20.0000 </r>
       <r>   -35.0732     0.0000    20.0000 </r>
       <r>   -34.8901     0.0000    20.0000 </r>
       <r>   -34.7070     0.0000    20.0000 </r>
       <r>   -34.5239     0.0000    20.0000 </r>
       <r>   -34.3408     0.0000    20.0000 </r>
       <r>   -34.1577     0.0000    20.0000 </r>
       <r>   -33.9746     0.0000    20.0000 </r>
       <r>   -33.7915     0.0000    20.0000 </r>
       <r>   -33.6084     0.0000    20.0000 </r>
       <r>   -33.4253     0.0000    20.0000 </r>
       <r>   -33.2422     0.0000    20.0000 </r>
       <r>   -33.0591     0.0000    20.0000 </r>
       <r>   -32.8761     0.0000    20.0000 </r>
       <r>   -32.6930     0.0000    20.0000 </r>
       <r>   -32.5099     0.0000    20.0000 </r>
       <r>   -32.3268     0.0000    20.0000 </r>
       <r>   -32.1437     0.0000    20.0000 </r>
       <r>   -31.9606     0.0000    20.0000 </r>
       <r>   -31.7775     0.0000    20.0000 </r>
       <r>   -31.5944     0.0000    20.0000 </r>
       <r>   -31.4113     0.0000    20.0000 </r>
       <r>   -31.2282     0.0000    20.0000 </r>
       <r>   -31.0451     0.0000    20.0000 </r>
       <r>   -30.8620     0.0000    20.0000 </r>
       <r>   -30.6789     0.0000    20.0000 </r>
       <r>   -30.4958     0.0000    20.0000 </r>
       <r>   -30.3127     0.0000    20.0000 </r>
       <r>   -30.1296     0.0000    20.0000 </r>
       <r>   -29.9465     0.0000    20.0000 </r>
       <r>   -29.7634     0.0000    20.0000 </r>
       <r>   -29.5803     0.0000    20.0000 </r>
       <r>   -29.3972     0.0000    20.0000 </r>
       <r>   -29.2141     0.0000    20.0000 </r>
       <r>   -29.0310     0.0000    20.0000 </r>
       <r>   -28.8479     0.0000    20.0000 </r>
       <r>   -28.6648     0.0000    20.0000 </r>
       <r>   -28.4818     0.0000    20.0000 </r>
       <r>   -28.2987     0.0000    20.0000 </r>
       <r>   -28.1156     0.0000    20.0000 </r>
       <r>   -27.9325     0.0000    20.0000 </r>
       <r>   -27.7494     0.0000    20.0000 </r>
       <r>   -27.5663     0.0000    20.0000 </r>
       <r>   -27.3832     0.0000    20.0000 </r>
       <r>   -27.2001     0.0000    20.0000 </r>
       <r>   -27.0170     0.0000    20.0000 </r>
       <r>   -26.8339     0.0000    20.0000 </r>
       <r>   -26.6508     0.0000    20.0000 </r>
       <r>   -26.4677     0.0000    20.0000 </r>
       <r>   -26.2846     0.0000    20.0000 </r>
       <r>   -26.1015     0.0000    20.0000 </r>
       <r>   -25.9184     0.0000    20.0000 </r>
       <r>   -25.7353     0.0000    20.0000 </r>
       <r>   -25.5522     0.0000    20.0000 </r>
       <r>   -25.3691     0.0000    20.0000 </r>
       <r>   -25.1860     0.0000    20.0000 </r>
       <r>   -25.0029     0.0000    20.0000 </r>
       <r>   -24.8198     0.0000    20.0000 </r>
       <r>   -24.6367     0.0000    20.0000 </r>
       <r>   -24.4536     0.0000    20.0000 </r>
       <r>   -24.2705     0.0000    20.0000 </r>
       <r>   -24.0875     0.0000    20.0000 </r>
       <r>   -23.9044     0.0000    20.0000 </r>
       <r>   -23.7213     0.0000    20.0000 </r>
       <r>   -23.5382     0.0000    20.0000 </r>
       <r>   -23.3551     0.0000    20.0000 </r>
       <r>   -23.1720     0.0000    20.0000 </r>
       <r>   -22.9889     0.0000    20.0000 </r>
       <r>   -22.8058     0.0000    20.0000 </r>
       <r>   -22.6227     0.0000    20.0000 </r>
       <r>   -22.4396     0.0000    20.0000 </r>
       <r>   -22.2565     0.0000    20.0000 </r>
       <r>   -22.0734     0.0000    20.0000 </r>
       <r>   -21.8903     0.0000    20.0000 </r>
       <r>   -21.7072     0.0000    20.0000 </r>
       <r>   -21.5241     0.0000    20.0000 </r>
       <r>   -21.3410     0.0000    20.0000 </r>
       <r>   -21.1579     0.0000    20.0000 </r>
       <r>   -20.9748     0.0000    20.0000 </r>
       <r>   -20.7917     0.0000    20.0000 </r>
       <r>   -20.6086     0.0000    20.0000 </r>
       <r>   -20.4255     0.0000    20.0000 </r>
       <r>   -20.2424     0.0000    20.0000 </r>
       <r>   -20.0593     0.0000    20.0000 </r>
       <r>   -19.8762     0.0000    20.0000 </r>
       <r>   -19.6932     0.0000    20.0000 </r>
       <r>   -19.5101     0.0000    20.0000 </r>
       <r>   -19.3270     0.0000    20.0000 </r>
       <r>   -19.1439     0.0000    20.0000 </r>
       <r>   -18.9608     0.0000    20.0000 </r>
       <r>   -18.7777     0.0000    32.0000 </r>
       <r>   -18.5946     0.0000   100.0000 </r>
       <r>   -18.4115     0.0000   152.0000 </r>
       <r>   -18.2284     0.0000   172.0000 </r>
       <r>   -18.0453     0.0000   180.0000 </r>
       <r>   -17.8622     0.0000   180.0000 </r>
       <r>   -17.6791     0.0000   180.0000 </r>
       <r>   -17.4960     0.0000   180.0000 </r>
       <r>   -17.3129     0.0000   180.0000 </r>
       <r>   -17.1298     0.0000   180.0000 </r>
       <r>   -16.9467     0.0000   180.0000 </r>
       <r>   -16.7636     0.0000   180.0000 </r>
       <r>   -16.5805     0.0000   180.0000 </r>
       <r>   -16.3974     0.0000   180.0000 </r>
       <r>   -16.2143     0.0000   180.0000 </r>
       <r>   -16.0312     0.0000   180.0000 </r>
       <r>   -15.8481     0.0000   180.0000 </r>
       <r>   -15.6650     0.0000   180.0000 </r>
       <r>   -15.4819     0.0000   180.0000 </r>
       <r>   -15.2988     0.0000   180.0000 </r>
       <r>   -15.1158     0.0000   180.0000 </r>
       <r>   -14.9327     0.0000   180.0000 </r>
       <r>   -14.7496     0.0000   180.0000 </r>
       <r>   -14.5665     0.0000   180.0000 </r>
       <r>   -14.3834     0.0000   180.0000 </r>
       <r>   -14.2003     0.0000   180.0000 </r>
       <r>   -14.0172     0.0000   180.0000 </r>
       <r>   -13.8341     0.0000   180.0000 </r>
       <r>   -13.6510     0.0000   180.0000 </r>
       <r>   -13.4679     0.0000   182.0000 </r>
       <r>   -13.2848     0.0000   184.0000 </r>
       <r>   -13.1017     0.0000   184.0000 </r>
       <r>   -12.9186     0.0000   184.0000 </r>
       <r>   -12.7355    48.0591   191.9685 </r>
       <r>   -12.5524     0.0000   206.0000 </r>
       <r>   -12.3693     0.0000   208.0000 </r>
       <r>   -12.1862     0.0000   208.0000 </r>
       <r>   -12.0031     0.0000   208.0000 </r>
       <r>   -11.8200     0.0000   212.0000 </r>
       <r>   -11.6369     0.0000   212.0000 </r>
       <r>   -11.4538     0.0000   212.0000 </r>
       <r>   -11.2707     0.0000   212.0000 </r>
       <r>   -11.0876     0.0000   212.0000 </r>
       <r>   -10.9045     0.0000   212.0000 </r>
       <r>   -10.7215     0.0000   212.0000 </r>
       <r>   -10.5384     0.0000   212.0000 </r>
       <r>   -10.3553     0.0000   212.0000 </r>
       <r>   -10.1722     0.0000   212.0000 </r>
       <r>    -9.9891     0.0000   212.0000 </r>
       <r>    -9.8060     0.0000   212.0000 </r>
       <r>    -9.6229     0.0000   212.0000 </r>
       <r>    -9.4398     0.0000   212.0000 </r>
       <r>    -9.2567     4.1544   212.1132 </r>
       <r>    -9.0736    14.0926   213.7936 </r>
       <r>    -8.8905     1.7854   216.0046 </r>
       <r>    -8.7074    13.8099   218.7208 </r>
       <r>    -8.5243    14.4729   221.0628 </r>
       <r>    -8.3412    23.5952   225.7516 </r>
       <r>    -8.1581    23.0272   228.9356 </r>
       <r>    -7.9750    23.5729   233.5913 </r>
       <r>    -7.7919    15.8418   237.1999 </r>
       <r>    -7.6088    21.0009   240.4015 </r>
       <r>    -7.4257     8.9025   243.6494 </r>
       <r>    -7.2426     0.0000   244.0000 </r>
       <r>    -7.0595     0.0000   244.0000 </r>
       <r>    -6.8764     0.0000   244.0000 </r>
       <r>    -6.6933     0.0000   244.0000 </r>
       <r>    -6.5102     0.0000   244.0000 </r>
       <r>    -6.3272     1.7264   244.0238 </r>
       <r>    -6.1441    19.7765   245.9788 </r>
       <r>    -5.9610    16.5633   250.3679 </r>
       <r>    -5.7779    25.4394   253.8828 </r>
       <r>    -5.5948    23.9390   258.6654 </r>
       <r>    -5.4117    22.5422   262.6228 </r>
       <r>    -5.2286    15.5889   266.1172 </r>
       <r>    -5.0455     4.5764   267.8913 </r>
       <r>    -4.8624     7.3610   268.8085 </r>
       <r>    -4.6793     8.4021   270.2250 </r>
       <r>    -4.4962     9.6585   271.9965 </r>
       <r>    -4.3131     6.3151   273.3193 </r>
       <r>    -4.1300     6.6496   274.6015 </r>
       <r>    -3.9469     3.4950   275.5346 </r>
       <r>    -3.7638     1.0589   275.9112 </r>
       <r>    -3.5807     0.0205   275.9998 </r>
       <r>    -3.3976     0.0000   276.0000 </r>
       <r>    -3.2145     0.0000   276.0000 </r>
       <r>    -3.0314     0.0000   276.0000 </r>
       <r>    -2.8483     0.0000   276.0000 </r>
       <r>    -2.6652     0.0000   276.0000 </r>
       <r>    -2.4821     0.0000   276.0000 </r>
       <r>    -2.2990     0.0000   276.0000 </r>
       <r>    -2.1159     0.0000   276.0000 </r>
       <r>    -1.9329     0.0000   276.0000 </r>
       <r>    -1.7498     0.0000   276.0000 </r>
       <r>    -1.5667     0.0000   276.0000 </r>
       <r>    -1.3836     0.4676   276.0085 </r>
       <r>    -1.2005     7.3546   276.6224 </r>
       <r>    -1.0174    10.2780   278.4046 </r>
       <r>    -0.8343    12.7497   280.6526 </r>
       <r>    -0.6512     7.3849   282.4774 </r>
       <r>    -0.4681     9.6436   283.6140 </r>
       <r>    -0.2850    21.5521   286.7438 </r>
       <r>    -0.1019    33.5621   291.4362 </r>
       <r>     0.0812    39.3959   298.7101 </r>
       <r>     0.2643    26.5869   304.2923 </r>
       <r>     0.4474    38.9134   311.3119 </r>
       <r>     0.6305    42.4949   318.7148 </r>
       <r>     0.8136    36.3654   325.3556 </r>
       <r>     0.9967    48.9553   331.8928 </r>
       <r>     1.1798    38.6997   340.4185 </r>
       <r>     1.3629    32.7014   348.5686 </r>
       <r>     1.5460    59.8900   357.5168 </r>
       <r>     1.7291    46.5714   366.7045 </r>
       <r>     1.9122    54.2413   376.5106 </r>
       <r>     2.0953    40.5588   384.0642 </r>
       <r>     2.2784    40.4398   391.7850 </r>
       <r>     2.4614    55.0392   400.4764 </r>
       <r>     2.6445    63.6313   412.0279 </r>
       <r>     2.8276    57.6570   423.7036 </r>
       <r>     3.0107    66.9010   436.5644 </r>
       <r>     3.1938    36.3172   446.7804 </r>
       <r>     3.3769    32.8552   453.1387 </r>
       <r>     3.5600    34.0680   460.0446 </r>
       <r>     3.7431    10.4312   463.4111 </r>
       <r>     3.9262    11.4000   466.1479 </r>
       <r>     4.1093     4.9402   467.6441 </r>
       <r>     4.2924     0.0000   468.0000 </r>
       <r>     4.4755     0.0000   468.0000 </r>
       <r>     4.6586     0.0000   468.0000 </r>
       <r>     4.8417     0.0000   468.0000 </r>
       <r>     5.0248     0.0000   468.0000 </r>
       <r>     5.2079     1.2164   468.0646 </r>
       <r>     5.3910     5.1030   468.6349 </r>
       <r>     5.5741     9.0986   469.9349 </r>
       <r>     5.7572    10.3142   471.6227 </r>
       <r>     5.9403    14.8319   475.8352 </r>
       <r>     6.1234    11.9529   478.2392 </r>
       <r>     6.3065    11.8382   480.3618 </r>
       <r>     6.4896    13.5990   482.6908 </r>
       <r>     6.6727    15.3377   485.3403 </r>
       <r>     6.8557    17.1208   488.3083 </r>
       <r>     7.0388    20.1889   491.7006 </r>
       <r>     7.2219    29.9232   496.1344 </r>
       <r>     7.4050    45.2046   502.6291 </r>
       <r>     7.5881    23.4620   509.4864 </r>
       <r>     7.7712    45.5785   515.0745 </r>
       <r>     7.9543    50.9811   523.8214 </r>
       <r>     8.1374    24.3224   530.4912 </r>
       <r>     8.3205    18.5569   534.2710 </r>
       <r>     8.5036    21.0608   537.7933 </r>
       <r>     8.6867    26.6408   542.2335 </r>
       <r>     8.8698    46.0131   548.4893 </r>
       <r>     9.0529    25.8529   555.5612 </r>
       <r>     9.2360     9.0153   558.4533 </r>
       <r>     9.4191     3.9756   559.6751 </r>
       <r>     9.6022     0.2336   559.9948 </r>
       <r>     9.7853     0.0000   560.0000 </r>
       <r>     9.9684     0.0000   560.0000 </r>
       <r>    10.1515     0.0000   560.0000 </r>
       <r>    10.3346     0.0000   560.0000 </r>
       <r>    10.5177     0.0000   560.0000 </r>
       <r>    10.7008     0.0000   560.0000 </r>
       <r>    10.8839     0.0000   560.0000 </r>
       <r>    11.0670     0.0000   560.0000 </r>
       <r>    11.2500     0.0000   560.0000 </r>
       <r>    11.4331     0.0000   560.0000 </r>
       <r>    11.6162     0.0000   560.0000 </r>
       <r>    11.7993     0.0000   560.0000 </r>
       <r>    11.9824     0.0000   560.0000 </r>
       <r>    12.1655     0.0000   560.0000 </r>
      </set>
     </set>
    </array>
   </total>
  </dos>
 </calculation>
 <structure name="finalpos" >
  <crystal>
   <varray name="basis" >
    <v>      11.17850000       0.00000000       0.00000000 </v>
    <v>       0.00000000       9.57460000       0.00000000 </v>
    <v>       0.00000000       0.00000000      11.18240000 </v>
   </varray>
   <i name="volume">   1196.84853820 </i>
   <varray name="rec_basis" >
    <v>       0.08945744       0.00000000       0.00000000 </v>
    <v>       0.00000000       0.10444301       0.00000000 </v>
    <v>       0.00000000       0.00000000       0.08942624 </v>
   </varray>
  </crystal>
  <varray name="positions" >
   <v>       0.37539000       0.00017000       0.43687000 </v>
   <v>       0.12461000       0.99984000       0.18687000 </v>
   <v>       0.37461000       0.00017000       0.18687000 </v>
   <v>       0.62539000       0.99984000       0.43687000 </v>
   <v>       0.62461000       0.99984000       0.18687000 </v>
   <v>       0.12539000       0.99984000       0.93687000 </v>
   <v>       0.37539000       0.00017000       0.93687000 </v>
   <v>       0.37461000       0.00017000       0.68687000 </v>
   <v>       0.62539000       0.99984000       0.93687000 </v>
   <v>       0.62461000       0.99984000       0.68687000 </v>
   <v>       0.87539000       0.00017000       0.43687000 </v>
   <v>       0.12461000       0.99984000       0.68687000 </v>
   <v>       0.87539000       0.00017000       0.93687000 </v>
   <v>       0.00013000       0.29519000       0.06281000 </v>
   <v>       0.25013000       0.70481000       0.06281000 </v>
   <v>       0.24987000       0.29519000       0.31282000 </v>
   <v>       0.49987000       0.70481000       0.31282000 </v>
   <v>       0.50013000       0.29519000       0.06281000 </v>
   <v>       0.75013000       0.70481000       0.06281000 </v>
   <v>       0.74987000       0.29519000       0.31282000 </v>
   <v>       0.99987000       0.70481000       0.31282000 </v>
   <v>       0.00013000       0.29519000       0.56281000 </v>
   <v>       0.25013000       0.70481000       0.56281000 </v>
   <v>       0.24987000       0.29519000       0.81282000 </v>
   <v>       0.49987000       0.70481000       0.81282000 </v>
   <v>       0.50013000       0.29519000       0.56281000 </v>
   <v>       0.75013000       0.70481000       0.56281000 </v>
   <v>       0.74987000       0.29519000       0.81282000 </v>
   <v>       0.99987000       0.70481000       0.81282000 </v>
   <v>       0.25005000       0.32677000       0.06286000 </v>
   <v>       0.00005000       0.67323000       0.06286000 </v>
   <v>       0.49995000       0.32677000       0.31286000 </v>
   <v>       0.24995000       0.67323000       0.31286000 </v>
   <v>       0.75005000       0.32677000       0.06286000 </v>
   <v>       0.50005000       0.67323000       0.06286000 </v>
   <v>       0.99995000       0.32677000       0.31286000 </v>
   <v>       0.74995000       0.67323000       0.31286000 </v>
   <v>       0.25005000       0.32677000       0.56286000 </v>
   <v>       0.00005000       0.67323000       0.56286000 </v>
   <v>       0.49995000       0.32677000       0.81286000 </v>
   <v>       0.24995000       0.67323000       0.81286000 </v>
   <v>       0.75005000       0.32677000       0.56286000 </v>
   <v>       0.50005000       0.67323000       0.56286000 </v>
   <v>       0.99995000       0.32677000       0.81286000 </v>
   <v>       0.74995000       0.67323000       0.81286000 </v>
   <v>       0.49987000       0.07798000       0.06246000 </v>
   <v>       0.24987000       0.92202000       0.06246000 </v>
   <v>       0.25013000       0.07798000       0.31246000 </v>
   <v>       0.00013000       0.92202000       0.31246000 </v>
   <v>       0.99987000       0.07798000       0.06246000 </v>
   <v>       0.74987000       0.92202000       0.06246000 </v>
   <v>       0.75013000       0.07798000       0.31246000 </v>
   <v>       0.50013000       0.92202000       0.31246000 </v>
   <v>       0.49987000       0.07798000       0.56246000 </v>
   <v>       0.24987000       0.92202000       0.56246000 </v>
   <v>       0.25013000       0.07798000       0.81246000 </v>
   <v>       0.00013000       0.92202000       0.81246000 </v>
   <v>       0.99987000       0.07798000       0.56246000 </v>
   <v>       0.74987000       0.92202000       0.56246000 </v>
   <v>       0.75013000       0.07798000       0.81246000 </v>
   <v>       0.50013000       0.92202000       0.81246000 </v>
  </varray>
 </structure>
</modeling>
