<?xml version="1.0" encoding="ISO-8859-1"?>
<modeling>
 <generator>
  <i name="program" type="string">vasp </i>
  <i name="version" type="string">5.4.4.18Apr17-6-g9f103f2a35  </i>
  <i name="subversion" type="string">(build Jul 31 2017 11:33:29) complex            parallel </i>
  <i name="platform" type="string">LinuxIFC </i>
  <i name="date" type="string">2021 09 29 </i>
  <i name="time" type="string">01:43:52 </i>
 </generator>
 <incar>
  <i type="string" name="SYSTEM"> La2O2S</i>
  <i type="string" name="PREC">normal</i>
  <i type="int" name="NELMIN">     4</i>
  <i type="int" name="IBRION">     2</i>
  <i type="int" name="NFREE">    10</i>
  <i name="EDIFF">      0.00000100</i>
  <i name="EDIFFG">     -0.01000000</i>
  <i type="int" name="NSW">     1</i>
  <i type="int" name="ISIF">     2</i>
  <i name="ENCUT">    600.00000000</i>
  <i name="ENAUG">    900.00000000</i>
  <i type="int" name="ISMEAR">    -5</i>
  <i type="logical" name="LWAVE"> F  </i>
  <i type="logical" name="LCHARG"> F  </i>
  <v type="int" name="KPOINT_BSE">    -1     0     0     0</v>
 </incar>
 <structure name="primitive_cell" >
  <crystal>
   <varray name="basis" >
    <v>      11.17850000       0.00000000       0.00000000 </v>
    <v>       0.00000000       9.57460000       0.00000000 </v>
    <v>       0.00000000       0.00000000      11.18240000 </v>
   </varray>
   <i name="volume">   1196.84853820 </i>
   <varray name="rec_basis" >
    <v>       0.08945744       0.00000000       0.00000000 </v>
    <v>       0.00000000       0.10444301       0.00000000 </v>
    <v>       0.00000000       0.00000000       0.08942624 </v>
   </varray>
  </crystal>
  <varray name="positions" >
   <v>       0.37539000       0.00017000       0.43687000 </v>
   <v>      -0.49987000      -0.07798000       0.31246000 </v>
   <v>       0.25013000       0.07798000       0.31246000 </v>
   <v>       0.49987000       0.07798000      -0.43754000 </v>
   <v>       0.24987000      -0.07798000      -0.43754000 </v>
   <v>      -0.37461000      -0.00016000       0.43687000 </v>
   <v>       0.37461000       0.00017000       0.18687000 </v>
   <v>       0.37461000       0.00017000      -0.31313000 </v>
   <v>       0.49987000      -0.29519000       0.31282000 </v>
   <v>       0.24987000       0.29519000       0.31282000 </v>
   <v>      -0.49987000       0.29519000      -0.43719000 </v>
   <v>       0.25013000      -0.29519000      -0.43719000 </v>
   <v>       0.49995000       0.32677000       0.31286000 </v>
   <v>       0.24995000      -0.32677000       0.31286000 </v>
   <v>      -0.49995000      -0.32677000      -0.43714000 </v>
   <v>       0.25005000       0.32677000      -0.43714000 </v>
   <v>      -0.37539000      -0.00016000       0.18687000 </v>
   <v>      -0.37539000      -0.00016000      -0.31313000 </v>
   <v>       0.12461000      -0.00016000       0.18687000 </v>
   <v>       0.12461000      -0.00016000      -0.31313000 </v>
   <v>       0.49987000       0.07798000       0.06246000 </v>
   <v>      -0.24987000       0.07798000       0.31246000 </v>
   <v>      -0.25013000      -0.07798000      -0.43754000 </v>
   <v>       0.24987000      -0.07798000       0.06246000 </v>
   <v>       0.00013000      -0.07798000       0.31246000 </v>
   <v>      -0.49987000      -0.07798000      -0.18754000 </v>
   <v>      -0.00013000       0.07798000      -0.43754000 </v>
   <v>       0.25013000       0.07798000      -0.18754000 </v>
   <v>      -0.49987000       0.29519000       0.06281000 </v>
   <v>      -0.25013000       0.29519000       0.31282000 </v>
   <v>       0.25013000      -0.29519000       0.06281000 </v>
   <v>      -0.24987000      -0.29519000      -0.43719000 </v>
   <v>      -0.00013000      -0.29519000       0.31282000 </v>
   <v>       0.00013000       0.29519000      -0.43719000 </v>
   <v>       0.49987000      -0.29519000      -0.18718000 </v>
   <v>       0.24987000       0.29519000      -0.18718000 </v>
   <v>      -0.49995000      -0.32677000       0.06286000 </v>
   <v>       0.25005000       0.32677000       0.06286000 </v>
   <v>      -0.25005000      -0.32677000       0.31286000 </v>
   <v>      -0.24995000       0.32677000      -0.43714000 </v>
   <v>      -0.00005000       0.32677000       0.31286000 </v>
   <v>       0.00005000      -0.32677000      -0.43714000 </v>
   <v>       0.49995000       0.32677000      -0.18714000 </v>
   <v>       0.24995000      -0.32677000      -0.18714000 </v>
   <v>      -0.12461000       0.00017000       0.43687000 </v>
   <v>       0.37539000       0.00017000      -0.06313000 </v>
   <v>      -0.25013000      -0.07798000       0.06246000 </v>
   <v>      -0.00013000       0.07798000       0.06246000 </v>
   <v>      -0.24987000       0.07798000      -0.18754000 </v>
   <v>       0.00013000      -0.07798000      -0.18754000 </v>
   <v>      -0.12539000       0.00017000       0.18687000 </v>
   <v>      -0.37461000      -0.00016000      -0.06313000 </v>
   <v>      -0.24987000      -0.29519000       0.06281000 </v>
   <v>       0.00013000       0.29519000       0.06281000 </v>
   <v>      -0.25013000       0.29519000      -0.18718000 </v>
   <v>      -0.00013000      -0.29519000      -0.18718000 </v>
   <v>      -0.24995000       0.32677000       0.06286000 </v>
   <v>       0.00005000      -0.32677000       0.06286000 </v>
   <v>      -0.25005000      -0.32677000      -0.18714000 </v>
   <v>      -0.00005000       0.32677000      -0.18714000 </v>
   <v>      -0.12461000       0.00017000      -0.06313000 </v>
  </varray>
 </structure>
 <varray name="primitive_index" >
  <v type="int" >        1 </v>
  <v type="int" >       53 </v>
  <v type="int" >       48 </v>
  <v type="int" >       54 </v>
  <v type="int" >       55 </v>
  <v type="int" >        4 </v>
  <v type="int" >        3 </v>
  <v type="int" >        8 </v>
  <v type="int" >       17 </v>
  <v type="int" >       16 </v>
  <v type="int" >       26 </v>
  <v type="int" >       23 </v>
  <v type="int" >       32 </v>
  <v type="int" >       33 </v>
  <v type="int" >       43 </v>
  <v type="int" >       38 </v>
  <v type="int" >        5 </v>
  <v type="int" >       10 </v>
  <v type="int" >        2 </v>
  <v type="int" >       12 </v>
  <v type="int" >       46 </v>
  <v type="int" >       52 </v>
  <v type="int" >       59 </v>
  <v type="int" >       47 </v>
  <v type="int" >       49 </v>
  <v type="int" >       61 </v>
  <v type="int" >       58 </v>
  <v type="int" >       56 </v>
  <v type="int" >       18 </v>
  <v type="int" >       20 </v>
  <v type="int" >       15 </v>
  <v type="int" >       27 </v>
  <v type="int" >       21 </v>
  <v type="int" >       22 </v>
  <v type="int" >       25 </v>
  <v type="int" >       24 </v>
  <v type="int" >       35 </v>
  <v type="int" >       30 </v>
  <v type="int" >       37 </v>
  <v type="int" >       42 </v>
  <v type="int" >       36 </v>
  <v type="int" >       39 </v>
  <v type="int" >       40 </v>
  <v type="int" >       41 </v>
  <v type="int" >       11 </v>
  <v type="int" >        7 </v>
  <v type="int" >       51 </v>
  <v type="int" >       50 </v>
  <v type="int" >       60 </v>
  <v type="int" >       57 </v>
  <v type="int" >        6 </v>
  <v type="int" >        9 </v>
  <v type="int" >       19 </v>
  <v type="int" >       14 </v>
  <v type="int" >       28 </v>
  <v type="int" >       29 </v>
  <v type="int" >       34 </v>
  <v type="int" >       31 </v>
  <v type="int" >       45 </v>
  <v type="int" >       44 </v>
  <v type="int" >       13 </v>
 </varray>
 <kpoints>
  <generation param="Gamma">
   <v type="int" name="divisions">       2        2        2 </v>
   <v name="usershift">      0.00000000       0.00000000       0.00000000 </v>
   <v name="genvec1">      0.50000000       0.00000000       0.00000000 </v>
   <v name="genvec2">      0.00000000       0.50000000       0.00000000 </v>
   <v name="genvec3">      0.00000000       0.00000000       0.50000000 </v>
   <v name="shift">      0.00000000       0.00000000       0.00000000 </v>
  </generation>
  <varray name="kpointlist" >
   <v>       0.00000000       0.00000000       0.00000000 </v>
   <v>       0.50000000       0.00000000       0.00000000 </v>
   <v>       0.00000000       0.50000000       0.00000000 </v>
   <v>       0.50000000       0.50000000       0.00000000 </v>
   <v>       0.00000000       0.00000000       0.50000000 </v>
   <v>       0.50000000       0.00000000       0.50000000 </v>
   <v>       0.00000000       0.50000000       0.50000000 </v>
   <v>       0.50000000       0.50000000       0.50000000 </v>
  </varray>
  <varray name="weights" >
   <v>       0.12500000 </v>
   <v>       0.12500000 </v>
   <v>       0.12500000 </v>
   <v>       0.12500000 </v>
   <v>       0.12500000 </v>
   <v>       0.12500000 </v>
   <v>       0.12500000 </v>
   <v>       0.12500000 </v>
  </varray>
  <varray name="tetrahedronlist"  type="int" >
   <v type="int" >        2        1        2        4        5 </v>
   <v type="int" >        2        1        3        4        5 </v>
   <v type="int" >        2        3        4        5        7 </v>
   <v type="int" >        2        2        4        5        6 </v>
   <v type="int" >        2        4        5        6        8 </v>
   <v type="int" >        2        4        5        7        8 </v>
   <v type="int" >        2        1        2        3        6 </v>
   <v type="int" >        2        2        3        4        6 </v>
   <v type="int" >        2        3        4        6        8 </v>
   <v type="int" >        2        1        3        5        6 </v>
   <v type="int" >        2        3        5        6        7 </v>
   <v type="int" >        2        3        6        7        8 </v>
   <v type="int" >        2        2        3        4        7 </v>
   <v type="int" >        2        1        2        3        7 </v>
   <v type="int" >        2        1        2        5        7 </v>
   <v type="int" >        2        2        4        7        8 </v>
   <v type="int" >        2        2        6        7        8 </v>
   <v type="int" >        2        2        5        6        7 </v>
   <v type="int" >        2        1        3        4        8 </v>
   <v type="int" >        2        1        2        4        8 </v>
   <v type="int" >        2        1        2        6        8 </v>
   <v type="int" >        2        1        3        7        8 </v>
   <v type="int" >        2        1        5        7        8 </v>
   <v type="int" >        2        1        5        6        8 </v>
  </varray>
  <i name="volumeweight">      0.02083333 </i>
 </kpoints>
 <parameters>
  <separator name="general" >
   <i type="string" name="SYSTEM">La2O2S</i>
   <i type="logical" name="LCOMPAT"> F  </i>
  </separator>
  <separator name="electronic" >
   <i type="string" name="PREC">normal</i>
   <i name="ENMAX">    600.00000000</i>
   <i name="ENAUG">    900.00000000</i>
   <i name="EDIFF">      0.00000100</i>
   <i type="int" name="IALGO">    38</i>
   <i type="int" name="IWAVPR">    11</i>
   <i type="int" name="NBANDS">   280</i>
   <i name="NELECT">    468.00000000</i>
   <i type="int" name="TURBO">     0</i>
   <i type="int" name="IRESTART">     0</i>
   <i type="int" name="NREBOOT">     0</i>
   <i type="int" name="NMIN">     0</i>
   <i name="EREF">      0.00000000</i>
   <separator name="electronic smearing" >
    <i type="int" name="ISMEAR">    -5</i>
    <i name="SIGMA">      0.20000000</i>
    <i name="KSPACING">      0.50000000</i>
    <i type="logical" name="KGAMMA"> T  </i>
   </separator>
   <separator name="electronic projectors" >
    <i type="logical" name="LREAL"> F  </i>
    <v name="ROPT">      0.00000000      0.00000000      0.00000000      0.00000000      0.00000000</v>
    <i type="int" name="LMAXPAW">  -100</i>
    <i type="int" name="LMAXMIX">     2</i>
    <i type="logical" name="NLSPLINE"> F  </i>
   </separator>
   <separator name="electronic startup" >
    <i type="int" name="ISTART">     0</i>
    <i type="int" name="ICHARG">     2</i>
    <i type="int" name="INIWAV">     1</i>
   </separator>
   <separator name="electronic spin" >
    <i type="int" name="ISPIN">     1</i>
    <i type="logical" name="LNONCOLLINEAR"> F  </i>
    <v name="MAGMOM">      1.00000000      1.00000000      1.00000000      1.00000000      1.00000000      1.00000000      1.00000000      1.00000000      1.00000000      1.00000000      1.00000000      1.00000000      1.00000000      1.00000000      1.00000000      1.00000000      1.00000000      1.00000000      1.00000000      1.00000000
      1.00000000      1.00000000      1.00000000      1.00000000      1.00000000      1.00000000      1.00000000      1.00000000      1.00000000      1.00000000      1.00000000      1.00000000      1.00000000      1.00000000      1.00000000      1.00000000      1.00000000      1.00000000      1.00000000      1.00000000
      1.00000000      1.00000000      1.00000000      1.00000000      1.00000000      1.00000000      1.00000000      1.00000000      1.00000000      1.00000000      1.00000000      1.00000000      1.00000000      1.00000000      1.00000000      1.00000000      1.00000000      1.00000000      1.00000000      1.00000000
      1.00000000</v>
    <i name="NUPDOWN">     -1.00000000</i>
    <i type="logical" name="LSORBIT"> F  </i>
    <v name="SAXIS">      0.00000000      0.00000000      1.00000000</v>
    <i type="logical" name="LSPIRAL"> F  </i>
    <v name="QSPIRAL">      0.00000000      0.00000000      0.00000000</v>
    <i type="logical" name="LZEROZ"> F  </i>
   </separator>
   <separator name="electronic exchange-correlation" >
    <i type="logical" name="LASPH"> F  </i>
    <i type="logical" name="LMETAGGA"> F  </i>
   </separator>
   <separator name="electronic convergence" >
    <i type="int" name="NELM">    60</i>
    <i type="int" name="NELMDL">    -5</i>
    <i type="int" name="NELMIN">     4</i>
    <i name="ENINI">    600.00000000</i>
    <separator name="electronic convergence detail" >
     <i type="logical" name="LDIAG"> T  </i>
     <i type="logical" name="LSUBROT"> F  </i>
     <i name="WEIMIN">      0.00100000</i>
     <i name="EBREAK">      0.00000000</i>
     <i name="DEPER">      0.30000000</i>
     <i type="int" name="NRMM">     4</i>
     <i name="TIME">      0.40000000</i>
    </separator>
   </separator>
   <separator name="electronic mixer" >
    <i name="AMIX">      0.40000000</i>
    <i name="BMIX">      1.00000000</i>
    <i name="AMIN">      0.10000000</i>
    <i name="AMIX_MAG">      1.60000000</i>
    <i name="BMIX_MAG">      1.00000000</i>
    <separator name="electronic mixer details" >
     <i type="int" name="IMIX">     4</i>
     <i type="logical" name="MIXFIRST"> F  </i>
     <i type="int" name="MAXMIX">   -45</i>
     <i name="WC">    100.00000000</i>
     <i type="int" name="INIMIX">     1</i>
     <i type="int" name="MIXPRE">     1</i>
     <i type="int" name="MREMOVE">     5</i>
    </separator>
   </separator>
   <separator name="electronic dipolcorrection" >
    <i type="logical" name="LDIPOL"> F  </i>
    <i type="logical" name="LMONO"> F  </i>
    <i type="int" name="IDIPOL">     0</i>
    <i name="EPSILON">      1.00000000</i>
    <v name="DIPOL">   -100.00000000   -100.00000000   -100.00000000</v>
    <i name="EFIELD">      0.00000000</i>
   </separator>
  </separator>
  <separator name="grids" >
   <i type="int" name="NGX">    70</i>
   <i type="int" name="NGY">    60</i>
   <i type="int" name="NGZ">    70</i>
   <i type="int" name="NGXF">   140</i>
   <i type="int" name="NGYF">   120</i>
   <i type="int" name="NGZF">   140</i>
   <i type="logical" name="ADDGRID"> F  </i>
  </separator>
  <separator name="ionic" >
   <i type="int" name="NSW">     1</i>
   <i type="int" name="IBRION">     2</i>
   <i type="int" name="MDALGO">     0</i>
   <i type="int" name="ISIF">     2</i>
   <i name="PSTRESS">      0.00000000</i>
   <i name="EDIFFG">     -0.01000000</i>
   <i type="int" name="NFREE">    10</i>
   <i name="POTIM">      0.50000000</i>
   <i name="SMASS">     -3.00000000</i>
   <i name="SCALEE">      1.00000000</i>
  </separator>
  <separator name="ionic md" >
   <i name="TEBEG">      0.00010000</i>
   <i name="TEEND">      0.00010000</i>
   <i type="int" name="NBLOCK">     1</i>
   <i type="int" name="KBLOCK">     1</i>
   <i type="int" name="NPACO">   256</i>
   <i name="APACO">     16.00000000</i>
  </separator>
  <separator name="symmetry" >
   <i type="int" name="ISYM">     2</i>
   <i name="SYMPREC">      0.00001000</i>
  </separator>
  <separator name="dos" >
   <i type="int" name="LORBIT">     0</i>
   <v name="RWIGS">     -1.00000000     -1.00000000     -1.00000000     -1.00000000     -1.00000000</v>
   <i type="int" name="NEDOS">   301</i>
   <i name="EMIN">     10.00000000</i>
   <i name="EMAX">    -10.00000000</i>
   <i name="EFERMI">      0.00000000</i>
  </separator>
  <separator name="writing" >
   <i type="int" name="NWRITE">     2</i>
   <i type="logical" name="LWAVE"> F  </i>
   <i type="logical" name="LDOWNSAMPLE"> F  </i>
   <i type="logical" name="LCHARG"> F  </i>
   <i type="logical" name="LPARD"> F  </i>
   <i type="logical" name="LVTOT"> F  </i>
   <i type="logical" name="LVHAR"> F  </i>
   <i type="logical" name="LELF"> F  </i>
   <i type="logical" name="LOPTICS"> F  </i>
   <v name="STM">      0.00000000      0.00000000      0.00000000      0.00000000      0.00000000      0.00000000      0.00000000</v>
  </separator>
  <separator name="performance" >
   <i type="int" name="NPAR">    28</i>
   <i type="int" name="NSIM">     4</i>
   <i type="int" name="NBLK">    -1</i>
   <i type="logical" name="LPLANE"> T  </i>
   <i type="logical" name="LSCALAPACK"> T  </i>
   <i type="logical" name="LSCAAWARE"> F  </i>
   <i type="logical" name="LSCALU"> F  </i>
   <i type="logical" name="LASYNC"> F  </i>
   <i type="logical" name="LORBITALREAL"> F  </i>
  </separator>
  <separator name="miscellaneous" >
   <i type="int" name="IDIOT">     3</i>
   <i type="int" name="ISPECIAL">     0</i>
   <i type="logical" name="LMUSIC"> F  </i>
   <v name="POMASS">      7.01000000     24.30500000    208.98000000     32.06600000     16.00000000</v>
   <v name="DARWINR">      0.00000000      0.00000000      0.00000000      0.00000000      0.00000000</v>
   <v name="DARWINV">      1.00000000      1.00000000      1.00000000      1.00000000      1.00000000</v>
   <i type="logical" name="LCORR"> T  </i>
  </separator>
  <i type="logical" name="GGA_COMPAT"> T  </i>
  <i type="logical" name="LBERRY"> F  </i>
  <i type="int" name="ICORELEVEL">     0</i>
  <i type="logical" name="LDAU"> F  </i>
  <i type="int" name="I_CONSTRAINED_M">     0</i>
  <separator name="electronic exchange-correlation" >
   <i type="string" name="GGA">--</i>
   <i type="int" name="VOSKOWN">     0</i>
   <i type="logical" name="LHFCALC"> F  </i>
   <i type="string" name="PRECFOCK"></i>
   <i type="logical" name="LSYMGRAD"> F  </i>
   <i type="logical" name="LHFONE"> F  </i>
   <i type="logical" name="LRHFCALC"> F  </i>
   <i type="logical" name="LTHOMAS"> F  </i>
   <i type="logical" name="LMODELHF"> F  </i>
   <i name="ENCUT4O">     -1.00000000</i>
   <i type="int" name="EXXOEP">     0</i>
   <i type="int" name="FOURORBIT">     0</i>
   <i name="AEXX">      0.00000000</i>
   <i name="HFALPHA">      0.00000000</i>
   <i name="MCALPHA">      0.00000000</i>
   <i name="ALDAX">      1.00000000</i>
   <i name="AGGAX">      1.00000000</i>
   <i name="ALDAC">      1.00000000</i>
   <i name="AGGAC">      1.00000000</i>
   <i type="int" name="NKREDX">     1</i>
   <i type="int" name="NKREDY">     1</i>
   <i type="int" name="NKREDZ">     1</i>
   <i type="logical" name="SHIFTRED"> F  </i>
   <i type="logical" name="ODDONLY"> F  </i>
   <i type="logical" name="EVENONLY"> F  </i>
   <i type="int" name="LMAXFOCK">     0</i>
   <i type="int" name="NMAXFOCKAE">     0</i>
   <i type="logical" name="LFOCKAEDFT"> F  </i>
   <i name="HFSCREEN">      0.00000000</i>
   <i name="HFSCREENC">      0.00000000</i>
   <i type="int" name="NBANDSGWLOW">     0</i>
  </separator>
  <separator name="vdW DFT" >
   <i type="logical" name="LUSE_VDW"> F  </i>
   <i name="Zab_VDW">     -0.84910000</i>
   <i name="PARAM1">      0.12340000</i>
   <i name="PARAM2">      1.00000000</i>
   <i name="PARAM3">      0.00000000</i>
  </separator>
  <separator name="model GW" >
   <i type="int" name="MODEL_GW">     0</i>
   <i name="MODEL_EPS0">     11.77228070</i>
   <i name="MODEL_ALPHA">      1.00000000</i>
  </separator>
  <separator name="linear response parameters" >
   <i type="logical" name="LEPSILON"> F  </i>
   <i type="logical" name="LRPA"> F  </i>
   <i type="logical" name="LNABLA"> F  </i>
   <i type="logical" name="LVEL"> F  </i>
   <i type="int" name="KINTER">     0</i>
   <i name="CSHIFT">      0.10000000</i>
   <i name="OMEGAMAX">     -1.00000000</i>
   <i name="DEG_THRESHOLD">      0.00200000</i>
   <i name="RTIME">     -0.10000000</i>
   <i name="WPLASMAI">      0.00000000</i>
   <v name="DFIELD">      0.00000000      0.00000000      0.00000000</v>
   <v name="WPLASMA">      0.00000000      0.00000000      0.00000000      0.00000000      0.00000000      0.00000000      0.00000000      0.00000000      0.00000000</v>
  </separator>
  <separator name="orbital magnetization" >
   <i type="logical" name="NUCIND"> F  </i>
   <v name="MAGPOS">      0.00000000      0.00000000      0.00000000</v>
   <i type="logical" name="LNICSALL"> T  </i>
   <i type="logical" name="ORBITALMAG"> F  </i>
   <i type="logical" name="LMAGBLOCH"> F  </i>
   <i type="logical" name="LCHIMAG"> F  </i>
   <i type="logical" name="LGAUGE"> T  </i>
   <i type="int" name="MAGATOM">     0</i>
   <v name="MAGDIPOL">      0.00000000      0.00000000      0.00000000</v>
   <v name="AVECCONST">      0.00000000      0.00000000      0.00000000</v>
  </separator>
  <separator name="response functions" >
   <i type="logical" name="LADDER"> F  </i>
   <i type="logical" name="LRPAFORCE"> F  </i>
   <i type="logical" name="LFXC"> F  </i>
   <i type="logical" name="LHARTREE"> T  </i>
   <i type="int" name="IBSE">     0</i>
   <v type="int" name="KPOINT">    -1     0     0     0</v>
   <i type="logical" name="LTCTE"> F  </i>
   <i type="logical" name="LTETE"> F  </i>
   <i type="logical" name="LTRIPLET"> F  </i>
   <i type="logical" name="LFXCEPS"> F  </i>
   <i type="logical" name="LFXHEG"> F  </i>
   <i type="int" name="NATURALO">     2</i>
   <i type="logical" name="L2ORDER"> F  </i>
   <i type="logical" name="LMP2LT"> F  </i>
   <i type="logical" name="LUSEW"> F  </i>
   <i name="ENCUTGW">     -2.00000000</i>
   <i name="ENCUTGWSOFT">     -2.00000000</i>
   <i name="ENCUTLF">     -1.00000000</i>
   <i type="int" name="LMAXMP2">    -1</i>
   <i name="SCISSOR">      0.00000000</i>
   <i type="int" name="NOMEGA">     0</i>
   <i type="int" name="NOMEGAR">     0</i>
   <i type="int" name="NBANDSGW">    -1</i>
   <i type="int" name="NBANDSO">    -1</i>
   <i type="int" name="NBANDSV">    -1</i>
   <i type="int" name="NELM">     1</i>
   <i type="int" name="NELMHF">     1</i>
   <i type="int" name="DIM">     3</i>
   <i type="int" name="ANTIRES">     0</i>
   <i name="OMEGAMAX">    -30.00000000</i>
   <i name="OMEGAMIN">    -30.00000000</i>
   <i name="OMEGATL">   -200.00000000</i>
   <i type="int" name="OMEGAGRID">   140</i>
   <i name="CSHIFT">     -0.10000000</i>
   <i type="logical" name="SELFENERGY"> F  </i>
   <i type="logical" name="LSPECTRAL"> F  </i>
   <i type="logical" name="LSPECTRALGW"> F  </i>
   <i type="logical" name="LSINGLES"> F  </i>
   <i type="logical" name="LFERMIGW"> F  </i>
   <i type="logical" name="ODDONLYGW"> F  </i>
   <i type="logical" name="EVENONLYGW"> F  </i>
   <i type="int" name="NKREDLFX">     1</i>
   <i type="int" name="NKREDLFY">     1</i>
   <i type="int" name="NKREDLFZ">     1</i>
   <i type="int" name="MAXMEM">  2800</i>
   <i type="int" name="TELESCOPE">     0</i>
   <i type="int" name="TAUPAR">     1</i>
   <i type="int" name="OMEGAPAR">    -1</i>
   <i name="LAMBDA">      1.00000000</i>
  </separator>
  <separator name="External order field" >
   <i name="OFIELD_KAPPA">      0.00000000</i>
   <v name="OFIELD_K">      0.00000000      0.00000000      0.00000000</v>
   <i name="OFIELD_Q6_NEAR">      0.00000000</i>
   <i name="OFIELD_Q6_FAR">      0.00000000</i>
   <i name="OFIELD_A">      0.00000000</i>
  </separator>
 </parameters>
 <atominfo>
  <atoms>      61 </atoms>
  <types>       5 </types>
  <array name="atoms" >
   <dimension dim="1">ion</dimension>
   <field type="string">element</field>
   <field type="int">atomtype</field>
   <set>
    <rc><c>Li</c><c>   1</c></rc>
    <rc><c>Li</c><c>   1</c></rc>
    <rc><c>Li</c><c>   1</c></rc>
    <rc><c>Li</c><c>   1</c></rc>
    <rc><c>Li</c><c>   1</c></rc>
    <rc><c>Li</c><c>   1</c></rc>
    <rc><c>Li</c><c>   1</c></rc>
    <rc><c>Li</c><c>   1</c></rc>
    <rc><c>Li</c><c>   1</c></rc>
    <rc><c>Li</c><c>   1</c></rc>
    <rc><c>Mg</c><c>   2</c></rc>
    <rc><c>Mg</c><c>   2</c></rc>
    <rc><c>Mg</c><c>   2</c></rc>
    <rc><c>Bi</c><c>   3</c></rc>
    <rc><c>Bi</c><c>   3</c></rc>
    <rc><c>Bi</c><c>   3</c></rc>
    <rc><c>Bi</c><c>   3</c></rc>
    <rc><c>Bi</c><c>   3</c></rc>
    <rc><c>Bi</c><c>   3</c></rc>
    <rc><c>Bi</c><c>   3</c></rc>
    <rc><c>Bi</c><c>   3</c></rc>
    <rc><c>Bi</c><c>   3</c></rc>
    <rc><c>Bi</c><c>   3</c></rc>
    <rc><c>Bi</c><c>   3</c></rc>
    <rc><c>Bi</c><c>   3</c></rc>
    <rc><c>Bi</c><c>   3</c></rc>
    <rc><c>Bi</c><c>   3</c></rc>
    <rc><c>Bi</c><c>   3</c></rc>
    <rc><c>Bi</c><c>   3</c></rc>
    <rc><c>S </c><c>   4</c></rc>
    <rc><c>S </c><c>   4</c></rc>
    <rc><c>S </c><c>   4</c></rc>
    <rc><c>S </c><c>   4</c></rc>
    <rc><c>S </c><c>   4</c></rc>
    <rc><c>S </c><c>   4</c></rc>
    <rc><c>S </c><c>   4</c></rc>
    <rc><c>S </c><c>   4</c></rc>
    <rc><c>S </c><c>   4</c></rc>
    <rc><c>S </c><c>   4</c></rc>
    <rc><c>S </c><c>   4</c></rc>
    <rc><c>S </c><c>   4</c></rc>
    <rc><c>S </c><c>   4</c></rc>
    <rc><c>S </c><c>   4</c></rc>
    <rc><c>S </c><c>   4</c></rc>
    <rc><c>S </c><c>   4</c></rc>
    <rc><c>O </c><c>   5</c></rc>
    <rc><c>O </c><c>   5</c></rc>
    <rc><c>O </c><c>   5</c></rc>
    <rc><c>O </c><c>   5</c></rc>
    <rc><c>O </c><c>   5</c></rc>
    <rc><c>O </c><c>   5</c></rc>
    <rc><c>O </c><c>   5</c></rc>
    <rc><c>O </c><c>   5</c></rc>
    <rc><c>O </c><c>   5</c></rc>
    <rc><c>O </c><c>   5</c></rc>
    <rc><c>O </c><c>   5</c></rc>
    <rc><c>O </c><c>   5</c></rc>
    <rc><c>O </c><c>   5</c></rc>
    <rc><c>O </c><c>   5</c></rc>
    <rc><c>O </c><c>   5</c></rc>
    <rc><c>O </c><c>   5</c></rc>
   </set>
  </array>
  <array name="atomtypes" >
   <dimension dim="1">type</dimension>
   <field type="int">atomspertype</field>
   <field type="string">element</field>
   <field>mass</field>
   <field>valence</field>
   <field type="string">pseudopotential</field>
   <set>
    <rc><c>  10</c><c>Li</c><c>      7.01000000</c><c>      3.00000000</c><c>  PAW_PBE Li_sv 10Sep2004               </c></rc>
    <rc><c>   3</c><c>Mg</c><c>     24.30500000</c><c>      2.00000000</c><c>  PAW_PBE Mg 13Apr2007                  </c></rc>
    <rc><c>  16</c><c>Bi</c><c>    208.98000000</c><c>     15.00000000</c><c>  PAW_PBE Bi_d 06Sep2000                </c></rc>
    <rc><c>  16</c><c>S </c><c>     32.06600000</c><c>      6.00000000</c><c>  PAW_PBE S 06Sep2000                   </c></rc>
    <rc><c>  16</c><c>O </c><c>     16.00000000</c><c>      6.00000000</c><c>  PAW_PBE O 08Apr2002                   </c></rc>
   </set>
  </array>
 </atominfo>
 <structure name="initialpos" >
  <crystal>
   <varray name="basis" >
    <v>      11.17850000       0.00000000       0.00000000 </v>
    <v>       0.00000000       9.57460000       0.00000000 </v>
    <v>       0.00000000       0.00000000      11.18240000 </v>
   </varray>
   <i name="volume">   1196.84853820 </i>
   <varray name="rec_basis" >
    <v>       0.08945744       0.00000000       0.00000000 </v>
    <v>       0.00000000       0.10444301       0.00000000 </v>
    <v>       0.00000000       0.00000000       0.08942624 </v>
   </varray>
  </crystal>
  <varray name="positions" >
   <v>       0.37539000       0.00017000       0.43687000 </v>
   <v>       0.12461000       0.99984000       0.18687000 </v>
   <v>       0.37461000       0.00017000       0.18687000 </v>
   <v>       0.62539000       0.99984000       0.43687000 </v>
   <v>       0.62461000       0.99984000       0.18687000 </v>
   <v>       0.87461000       0.00017000       0.18687000 </v>
   <v>       0.37539000       0.00017000       0.93687000 </v>
   <v>       0.37461000       0.00017000       0.68687000 </v>
   <v>       0.62539000       0.99984000       0.93687000 </v>
   <v>       0.62461000       0.99984000       0.68687000 </v>
   <v>       0.87539000       0.00017000       0.43687000 </v>
   <v>       0.12461000       0.99984000       0.68687000 </v>
   <v>       0.87539000       0.00017000       0.93687000 </v>
   <v>       0.00013000       0.29519000       0.06281000 </v>
   <v>       0.25013000       0.70481000       0.06281000 </v>
   <v>       0.24987000       0.29519000       0.31282000 </v>
   <v>       0.49987000       0.70481000       0.31282000 </v>
   <v>       0.50013000       0.29519000       0.06281000 </v>
   <v>       0.75013000       0.70481000       0.06281000 </v>
   <v>       0.74987000       0.29519000       0.31282000 </v>
   <v>       0.99987000       0.70481000       0.31282000 </v>
   <v>       0.00013000       0.29519000       0.56281000 </v>
   <v>       0.25013000       0.70481000       0.56281000 </v>
   <v>       0.24987000       0.29519000       0.81282000 </v>
   <v>       0.49987000       0.70481000       0.81282000 </v>
   <v>       0.50013000       0.29519000       0.56281000 </v>
   <v>       0.75013000       0.70481000       0.56281000 </v>
   <v>       0.74987000       0.29519000       0.81282000 </v>
   <v>       0.99987000       0.70481000       0.81282000 </v>
   <v>       0.25005000       0.32677000       0.06286000 </v>
   <v>       0.00005000       0.67323000       0.06286000 </v>
   <v>       0.49995000       0.32677000       0.31286000 </v>
   <v>       0.24995000       0.67323000       0.31286000 </v>
   <v>       0.75005000       0.32677000       0.06286000 </v>
   <v>       0.50005000       0.67323000       0.06286000 </v>
   <v>       0.99995000       0.32677000       0.31286000 </v>
   <v>       0.74995000       0.67323000       0.31286000 </v>
   <v>       0.25005000       0.32677000       0.56286000 </v>
   <v>       0.00005000       0.67323000       0.56286000 </v>
   <v>       0.49995000       0.32677000       0.81286000 </v>
   <v>       0.24995000       0.67323000       0.81286000 </v>
   <v>       0.75005000       0.32677000       0.56286000 </v>
   <v>       0.50005000       0.67323000       0.56286000 </v>
   <v>       0.99995000       0.32677000       0.81286000 </v>
   <v>       0.74995000       0.67323000       0.81286000 </v>
   <v>       0.49987000       0.07798000       0.06246000 </v>
   <v>       0.24987000       0.92202000       0.06246000 </v>
   <v>       0.25013000       0.07798000       0.31246000 </v>
   <v>       0.00013000       0.92202000       0.31246000 </v>
   <v>       0.99987000       0.07798000       0.06246000 </v>
   <v>       0.74987000       0.92202000       0.06246000 </v>
   <v>       0.75013000       0.07798000       0.31246000 </v>
   <v>       0.50013000       0.92202000       0.31246000 </v>
   <v>       0.49987000       0.07798000       0.56246000 </v>
   <v>       0.24987000       0.92202000       0.56246000 </v>
   <v>       0.25013000       0.07798000       0.81246000 </v>
   <v>       0.00013000       0.92202000       0.81246000 </v>
   <v>       0.99987000       0.07798000       0.56246000 </v>
   <v>       0.74987000       0.92202000       0.56246000 </v>
   <v>       0.75013000       0.07798000       0.81246000 </v>
   <v>       0.50013000       0.92202000       0.81246000 </v>
  </varray>
 </structure>
 <calculation>
  <scstep>
   <time name="dav">   58.96   59.00</time>
   <time name="total">   59.04   59.10</time>
   <energy>
    <i name="alphaZ">   1073.51873187 </i>
    <i name="ewald"> -30858.27886863 </i>
    <i name="hartreedc"> -12730.35377574 </i>
    <i name="XCdc">   1394.96636894 </i>
    <i name="pawpsdc">  36823.70205594 </i>
    <i name="pawaedc"> -36326.52930246 </i>
    <i name="eentropy">      0.00000000 </i>
    <i name="bandstr">   1805.56486453 </i>
    <i name="atom">  44791.06186932 </i>
    <i name="e_fr_energy">   5973.65194378 </i>
    <i name="e_wo_entrp">   5973.65194378 </i>
    <i name="e_0_energy">   5973.65194378 </i>
   </energy>
  </scstep>
  <scstep>
   <time name="dav">   59.73   59.76</time>
   <time name="total">   59.74   59.77</time>
   <energy>
    <i name="e_fr_energy">    798.60853829 </i>
    <i name="e_wo_entrp">    798.60853829 </i>
    <i name="e_0_energy">    798.60853829 </i>
   </energy>
  </scstep>
  <scstep>
   <time name="dav">   68.96   68.98</time>
   <time name="total">   68.97   68.99</time>
   <energy>
    <i name="e_fr_energy">   -244.90918281 </i>
    <i name="e_wo_entrp">   -244.90918281 </i>
    <i name="e_0_energy">   -244.90918281 </i>
   </energy>
  </scstep>
  <scstep>
   <time name="dav">   72.48   72.51</time>
   <time name="total">   72.48   72.52</time>
   <energy>
    <i name="e_fr_energy">   -347.34424101 </i>
    <i name="e_wo_entrp">   -347.34424101 </i>
    <i name="e_0_energy">   -347.34424101 </i>
   </energy>
  </scstep>
  <scstep>
   <time name="dav">   94.80   94.95</time>
   <time name="total">   95.52   95.68</time>
   <energy>
    <i name="e_fr_energy">   -355.59861278 </i>
    <i name="e_wo_entrp">   -355.59861278 </i>
    <i name="e_0_energy">   -355.59861278 </i>
   </energy>
  </scstep>
  <scstep>
   <time name="dav">   84.02   84.08</time>
   <time name="total">   84.82   84.88</time>
   <energy>
    <i name="e_fr_energy">   -296.84491482 </i>
    <i name="e_wo_entrp">   -296.84491482 </i>
    <i name="e_0_energy">   -296.84491482 </i>
   </energy>
  </scstep>
  <scstep>
   <time name="dav">   64.67   64.88</time>
   <time name="total">   65.45   65.68</time>
   <energy>
    <i name="e_fr_energy">   -299.62853273 </i>
    <i name="e_wo_entrp">   -299.62853273 </i>
    <i name="e_0_energy">   -299.62853273 </i>
   </energy>
  </scstep>
  <scstep>
   <time name="dav">   79.28   79.78</time>
   <time name="total">   80.06   80.57</time>
   <energy>
    <i name="e_fr_energy">   -298.37723153 </i>
    <i name="e_wo_entrp">   -298.37723153 </i>
    <i name="e_0_energy">   -298.37723153 </i>
   </energy>
  </scstep>
  <scstep>
   <time name="dav">   75.35   75.82</time>
   <time name="total">   76.14   76.62</time>
   <energy>
    <i name="e_fr_energy">   -297.72003177 </i>
    <i name="e_wo_entrp">   -297.72003177 </i>
    <i name="e_0_energy">   -297.72003177 </i>
   </energy>
  </scstep>
  <scstep>
   <time name="dav">   71.01   71.49</time>
   <time name="total">   71.80   72.28</time>
   <energy>
    <i name="e_fr_energy">   -297.73391223 </i>
    <i name="e_wo_entrp">   -297.73391223 </i>
    <i name="e_0_energy">   -297.73391223 </i>
   </energy>
  </scstep>
  <scstep>
   <time name="dav">   76.12   76.58</time>
   <time name="total">   76.91   77.37</time>
   <energy>
    <i name="e_fr_energy">   -297.74431306 </i>
    <i name="e_wo_entrp">   -297.74431306 </i>
    <i name="e_0_energy">   -297.74431306 </i>
   </energy>
  </scstep>
  <scstep>
   <time name="dav">   82.83   83.43</time>
   <time name="total">   83.61   84.22</time>
   <energy>
    <i name="e_fr_energy">   -297.74742365 </i>
    <i name="e_wo_entrp">   -297.74742365 </i>
    <i name="e_0_energy">   -297.74742365 </i>
   </energy>
  </scstep>
  <scstep>
   <time name="dav">   72.49   73.06</time>
   <time name="total">   73.28   73.86</time>
   <energy>
    <i name="e_fr_energy">   -297.74888577 </i>
    <i name="e_wo_entrp">   -297.74888577 </i>
    <i name="e_0_energy">   -297.74888577 </i>
   </energy>
  </scstep>
  <scstep>
   <time name="dav">   74.11   74.52</time>
   <time name="total">   74.89   75.31</time>
   <energy>
    <i name="e_fr_energy">   -297.74905492 </i>
    <i name="e_wo_entrp">   -297.74905492 </i>
    <i name="e_0_energy">   -297.74905492 </i>
   </energy>
  </scstep>
  <scstep>
   <time name="dav">   76.31   76.52</time>
   <time name="total">   77.09   77.31</time>
   <energy>
    <i name="e_fr_energy">   -297.74911025 </i>
    <i name="e_wo_entrp">   -297.74911025 </i>
    <i name="e_0_energy">   -297.74911025 </i>
   </energy>
  </scstep>
  <scstep>
   <time name="dav">   63.74   63.93</time>
   <time name="total">   64.52   64.72</time>
   <energy>
    <i name="e_fr_energy">   -297.74912484 </i>
    <i name="e_wo_entrp">   -297.74912484 </i>
    <i name="e_0_energy">   -297.74912484 </i>
   </energy>
  </scstep>
  <scstep>
   <time name="dav">   62.67   62.85</time>
   <time name="total">   63.45   63.64</time>
   <energy>
    <i name="e_fr_energy">   -297.74912782 </i>
    <i name="e_wo_entrp">   -297.74912782 </i>
    <i name="e_0_energy">   -297.74912782 </i>
   </energy>
  </scstep>
  <scstep>
   <time name="dav">   65.97   66.22</time>
   <time name="total">   66.75   67.01</time>
   <energy>
    <i name="e_fr_energy">   -297.74912888 </i>
    <i name="e_wo_entrp">   -297.74912888 </i>
    <i name="e_0_energy">   -297.74912888 </i>
   </energy>
  </scstep>
  <scstep>
   <time name="dav">   51.66   51.81</time>
   <time name="total">   51.73   51.89</time>
   <energy>
    <i name="alphaZ">   1073.51873187 </i>
    <i name="ewald"> -30858.27886863 </i>
    <i name="hartreedc"> -12970.05781322 </i>
    <i name="XCdc">   1418.60024322 </i>
    <i name="pawpsdc">  43854.58403290 </i>
    <i name="pawaedc"> -43332.14171511 </i>
    <i name="eentropy">      0.00000000 </i>
    <i name="bandstr">  -4275.03560868 </i>
    <i name="atom">  44791.06186932 </i>
    <i name="e_fr_energy">   -297.74912834 </i>
    <i name="e_wo_entrp">   -297.74912834 </i>
    <i name="e_0_energy">   -297.74912834 </i>
   </energy>
  </scstep>
  <structure>
   <crystal>
    <varray name="basis" >
     <v>      11.17850000       0.00000000       0.00000000 </v>
     <v>       0.00000000       9.57460000       0.00000000 </v>
     <v>       0.00000000       0.00000000      11.18240000 </v>
    </varray>
    <i name="volume">   1196.84853820 </i>
    <varray name="rec_basis" >
     <v>       0.08945744       0.00000000       0.00000000 </v>
     <v>       0.00000000       0.10444301       0.00000000 </v>
     <v>       0.00000000       0.00000000       0.08942624 </v>
    </varray>
   </crystal>
   <varray name="positions" >
    <v>       0.37539000       0.00017000       0.43687000 </v>
    <v>       0.12461000       0.99984000       0.18687000 </v>
    <v>       0.37461000       0.00017000       0.18687000 </v>
    <v>       0.62539000       0.99984000       0.43687000 </v>
    <v>       0.62461000       0.99984000       0.18687000 </v>
    <v>       0.87461000       0.00017000       0.18687000 </v>
    <v>       0.37539000       0.00017000       0.93687000 </v>
    <v>       0.37461000       0.00017000       0.68687000 </v>
    <v>       0.62539000       0.99984000       0.93687000 </v>
    <v>       0.62461000       0.99984000       0.68687000 </v>
    <v>       0.87539000       0.00017000       0.43687000 </v>
    <v>       0.12461000       0.99984000       0.68687000 </v>
    <v>       0.87539000       0.00017000       0.93687000 </v>
    <v>       0.00013000       0.29519000       0.06281000 </v>
    <v>       0.25013000       0.70481000       0.06281000 </v>
    <v>       0.24987000       0.29519000       0.31282000 </v>
    <v>       0.49987000       0.70481000       0.31282000 </v>
    <v>       0.50013000       0.29519000       0.06281000 </v>
    <v>       0.75013000       0.70481000       0.06281000 </v>
    <v>       0.74987000       0.29519000       0.31282000 </v>
    <v>       0.99987000       0.70481000       0.31282000 </v>
    <v>       0.00013000       0.29519000       0.56281000 </v>
    <v>       0.25013000       0.70481000       0.56281000 </v>
    <v>       0.24987000       0.29519000       0.81282000 </v>
    <v>       0.49987000       0.70481000       0.81282000 </v>
    <v>       0.50013000       0.29519000       0.56281000 </v>
    <v>       0.75013000       0.70481000       0.56281000 </v>
    <v>       0.74987000       0.29519000       0.81282000 </v>
    <v>       0.99987000       0.70481000       0.81282000 </v>
    <v>       0.25005000       0.32677000       0.06286000 </v>
    <v>       0.00005000       0.67323000       0.06286000 </v>
    <v>       0.49995000       0.32677000       0.31286000 </v>
    <v>       0.24995000       0.67323000       0.31286000 </v>
    <v>       0.75005000       0.32677000       0.06286000 </v>
    <v>       0.50005000       0.67323000       0.06286000 </v>
    <v>       0.99995000       0.32677000       0.31286000 </v>
    <v>       0.74995000       0.67323000       0.31286000 </v>
    <v>       0.25005000       0.32677000       0.56286000 </v>
    <v>       0.00005000       0.67323000       0.56286000 </v>
    <v>       0.49995000       0.32677000       0.81286000 </v>
    <v>       0.24995000       0.67323000       0.81286000 </v>
    <v>       0.75005000       0.32677000       0.56286000 </v>
    <v>       0.50005000       0.67323000       0.56286000 </v>
    <v>       0.99995000       0.32677000       0.81286000 </v>
    <v>       0.74995000       0.67323000       0.81286000 </v>
    <v>       0.49987000       0.07798000       0.06246000 </v>
    <v>       0.24987000       0.92202000       0.06246000 </v>
    <v>       0.25013000       0.07798000       0.31246000 </v>
    <v>       0.00013000       0.92202000       0.31246000 </v>
    <v>       0.99987000       0.07798000       0.06246000 </v>
    <v>       0.74987000       0.92202000       0.06246000 </v>
    <v>       0.75013000       0.07798000       0.31246000 </v>
    <v>       0.50013000       0.92202000       0.31246000 </v>
    <v>       0.49987000       0.07798000       0.56246000 </v>
    <v>       0.24987000       0.92202000       0.56246000 </v>
    <v>       0.25013000       0.07798000       0.81246000 </v>
    <v>       0.00013000       0.92202000       0.81246000 </v>
    <v>       0.99987000       0.07798000       0.56246000 </v>
    <v>       0.74987000       0.92202000       0.56246000 </v>
    <v>       0.75013000       0.07798000       0.81246000 </v>
    <v>       0.50013000       0.92202000       0.81246000 </v>
   </varray>
  </structure>
  <varray name="forces" >
   <v>      -0.45427238       0.06441733      -0.08184965 </v>
   <v>       0.21801489      -0.00029037       0.00500860 </v>
   <v>      -0.34762908      -0.00087608       0.00675222 </v>
   <v>      -0.36788822      -0.06630334       0.17165800 </v>
   <v>      -0.20991356      -0.00020659       0.00474406 </v>
   <v>       0.36355518      -0.00150753       0.00598882 </v>
   <v>      -0.45470436      -0.06576405       0.09154275 </v>
   <v>       0.11677353       0.00040147       0.00712282 </v>
   <v>      -0.36792142       0.06437688      -0.15835969 </v>
   <v>       0.30946820      -0.00009017       0.00426986 </v>
   <v>       0.85781511      -0.12428746       0.85313313 </v>
   <v>      -0.53118354       0.00568923       0.03025486 </v>
   <v>       0.85840191       0.11110194      -0.79077037 </v>
   <v>       0.43241803       0.02399122      -0.03137613 </v>
   <v>      -0.07704101       1.01999817      -0.05347244 </v>
   <v>      -0.06368813      -1.02639318       0.04307639 </v>
   <v>      -0.24959328      -0.01045736      -0.01829305 </v>
   <v>      -0.26244262       0.01020186       0.00966055 </v>
   <v>      -0.11723392      -1.04938728       0.03797349 </v>
   <v>      -0.11074174       1.06063200      -0.04426950 </v>
   <v>       0.44738058      -0.02008085       0.02133301 </v>
   <v>       0.13392158      -0.09608054      -0.02863857 </v>
   <v>       0.00203112       0.01301048      -0.26348487 </v>
   <v>       0.01010240      -0.03253333       0.25496891 </v>
   <v>      -0.14790021      -0.01943420       0.00402453 </v>
   <v>      -0.15833264       0.01941139      -0.01214554 </v>
   <v>      -0.00124934      -0.00254472       0.22015970 </v>
   <v>       0.00613572       0.02210540      -0.23097518 </v>
   <v>       0.15671520       0.09665884       0.01920504 </v>
   <v>       0.01962535       0.20960757      -0.08753038 </v>
   <v>      -0.31798564      -0.12251091      -0.01955823 </v>
   <v>       0.26798164       0.18622510      -0.00000038 </v>
   <v>       0.02299665      -0.20992331       0.08673052 </v>
   <v>       0.03434392       0.11770362       0.03953738 </v>
   <v>       0.26507171      -0.18663501      -0.00029995 </v>
   <v>      -0.32023176       0.12054225       0.01874150 </v>
   <v>       0.03536540      -0.11830124      -0.04024497 </v>
   <v>      -0.01550885       0.16994117       0.14890575 </v>
   <v>      -0.07496902      -0.08581853      -0.01946772 </v>
   <v>       0.08223815       0.18974792       0.00001663 </v>
   <v>      -0.01260524      -0.17141875      -0.15179547 </v>
   <v>       0.00857348       0.09491800      -0.15253498 </v>
   <v>       0.07717457      -0.18998883       0.00010582 </v>
   <v>      -0.08002276       0.08525915       0.02037268 </v>
   <v>       0.01079264      -0.09336479       0.15283872 </v>
   <v>       0.24351231      -0.02370577       0.00025963 </v>
   <v>       0.62313070      -0.85822642       0.53576247 </v>
   <v>       0.61301003       0.86183282      -0.53333403 </v>
   <v>      -1.32719373       0.00757825      -0.13236173 </v>
   <v>      -1.32111376      -0.01105505       0.12346168 </v>
   <v>       0.48032307       0.83521130      -0.40910669 </v>
   <v>       0.45811890      -0.83047312       0.38890895 </v>
   <v>       0.23296515       0.02497241      -0.00309690 </v>
   <v>       0.09141301      -0.01981602      -0.00199811 </v>
   <v>       0.13752329      -0.08260664       1.14606606 </v>
   <v>       0.11692631       0.08403130      -1.16183623 </v>
   <v>      -0.08489062      -0.28587746       0.01870408 </v>
   <v>      -0.07979207       0.28654697      -0.02981681 </v>
   <v>      -0.11978789       0.03009385      -1.20313302 </v>
   <v>      -0.14063953      -0.03071619       1.18890605 </v>
   <v>       0.08265659       0.02046719      -0.00044408 </v>
  </varray>
  <varray name="stress" >
   <v>      -8.25139324      -0.17564249       0.01186001 </v>
   <v>      -0.17564266     -14.15844070      -0.10194378 </v>
   <v>       0.01185989      -0.10194409     -10.56982407 </v>
  </varray>
  <energy>
   <i name="e_fr_energy">   -312.43711638 </i>
   <i name="e_wo_entrp">   -312.43711638 </i>
   <i name="e_0_energy">      0.00000000 </i>
  </energy>
  <time name="totalsc"> 1473.59 1478.72</time>
  <eigenvalues>
   <array>
    <dimension dim="1">band</dimension>
    <dimension dim="2">kpoint</dimension>
    <dimension dim="3">spin</dimension>
    <field>eigene</field>
    <field>occ</field>
    <set>
     <set comment="spin 1">
      <set comment="kpoint 1">
       <r>  -40.2681    1.0000 </r>
       <r>  -40.1715    1.0000 </r>
       <r>  -40.0501    1.0000 </r>
       <r>  -40.0499    1.0000 </r>
       <r>  -39.8058    1.0000 </r>
       <r>  -39.7903    1.0000 </r>
       <r>  -39.5539    1.0000 </r>
       <r>  -39.5531    1.0000 </r>
       <r>  -39.4332    1.0000 </r>
       <r>  -39.3688    1.0000 </r>
       <r>  -18.9203    1.0000 </r>
       <r>  -18.9173    1.0000 </r>
       <r>  -18.8502    1.0000 </r>
       <r>  -18.8481    1.0000 </r>
       <r>  -18.8432    1.0000 </r>
       <r>  -18.8411    1.0000 </r>
       <r>  -18.7467    1.0000 </r>
       <r>  -18.7439    1.0000 </r>
       <r>  -18.7333    1.0000 </r>
       <r>  -18.7307    1.0000 </r>
       <r>  -18.7131    1.0000 </r>
       <r>  -18.7095    1.0000 </r>
       <r>  -18.7036    1.0000 </r>
       <r>  -18.7001    1.0000 </r>
       <r>  -18.6969    1.0000 </r>
       <r>  -18.6925    1.0000 </r>
       <r>  -18.6447    1.0000 </r>
       <r>  -18.6432    1.0000 </r>
       <r>  -18.6356    1.0000 </r>
       <r>  -18.6343    1.0000 </r>
       <r>  -18.6340    1.0000 </r>
       <r>  -18.6335    1.0000 </r>
       <r>  -18.6323    1.0000 </r>
       <r>  -18.6310    1.0000 </r>
       <r>  -18.6297    1.0000 </r>
       <r>  -18.6285    1.0000 </r>
       <r>  -18.6273    1.0000 </r>
       <r>  -18.6268    1.0000 </r>
       <r>  -18.6232    1.0000 </r>
       <r>  -18.6226    1.0000 </r>
       <r>  -18.6225    1.0000 </r>
       <r>  -18.6219    1.0000 </r>
       <r>  -18.6213    1.0000 </r>
       <r>  -18.6205    1.0000 </r>
       <r>  -18.6134    1.0000 </r>
       <r>  -18.6126    1.0000 </r>
       <r>  -18.6113    1.0000 </r>
       <r>  -18.6105    1.0000 </r>
       <r>  -18.6072    1.0000 </r>
       <r>  -18.6066    1.0000 </r>
       <r>  -18.5631    1.0000 </r>
       <r>  -18.5606    1.0000 </r>
       <r>  -18.5575    1.0000 </r>
       <r>  -18.5532    1.0000 </r>
       <r>  -18.5495    1.0000 </r>
       <r>  -18.5472    1.0000 </r>
       <r>  -18.5403    1.0000 </r>
       <r>  -18.5402    1.0000 </r>
       <r>  -18.5366    1.0000 </r>
       <r>  -18.5359    1.0000 </r>
       <r>  -18.4905    1.0000 </r>
       <r>  -18.4886    1.0000 </r>
       <r>  -18.4788    1.0000 </r>
       <r>  -18.4778    1.0000 </r>
       <r>  -18.4765    1.0000 </r>
       <r>  -18.4746    1.0000 </r>
       <r>  -18.4681    1.0000 </r>
       <r>  -18.4675    1.0000 </r>
       <r>  -18.4673    1.0000 </r>
       <r>  -18.4668    1.0000 </r>
       <r>  -18.4665    1.0000 </r>
       <r>  -18.4659    1.0000 </r>
       <r>  -18.4652    1.0000 </r>
       <r>  -18.4641    1.0000 </r>
       <r>  -18.4499    1.0000 </r>
       <r>  -18.4491    1.0000 </r>
       <r>  -18.4071    1.0000 </r>
       <r>  -18.4037    1.0000 </r>
       <r>  -18.3884    1.0000 </r>
       <r>  -18.3851    1.0000 </r>
       <r>  -18.3847    1.0000 </r>
       <r>  -18.3843    1.0000 </r>
       <r>  -18.3718    1.0000 </r>
       <r>  -18.3714    1.0000 </r>
       <r>  -18.2922    1.0000 </r>
       <r>  -18.2913    1.0000 </r>
       <r>  -18.1775    1.0000 </r>
       <r>  -18.1766    1.0000 </r>
       <r>  -18.1640    1.0000 </r>
       <r>  -18.1626    1.0000 </r>
       <r>  -13.5336    1.0000 </r>
       <r>  -13.4631    1.0000 </r>
       <r>  -12.8957    1.0000 </r>
       <r>  -12.7942    1.0000 </r>
       <r>  -12.7738    1.0000 </r>
       <r>  -12.7357    1.0000 </r>
       <r>  -12.7093    1.0000 </r>
       <r>  -12.7026    1.0000 </r>
       <r>  -12.6505    1.0000 </r>
       <r>  -12.6491    1.0000 </r>
       <r>  -12.6244    1.0000 </r>
       <r>  -12.5923    1.0000 </r>
       <r>  -12.5906    1.0000 </r>
       <r>  -12.5516    1.0000 </r>
       <r>  -11.9534    1.0000 </r>
       <r>  -11.8905    1.0000 </r>
       <r>   -9.3159    1.0000 </r>
       <r>   -9.0213    1.0000 </r>
       <r>   -8.5210    1.0000 </r>
       <r>   -8.4921    1.0000 </r>
       <r>   -8.4747    1.0000 </r>
       <r>   -8.4317    1.0000 </r>
       <r>   -8.2981    1.0000 </r>
       <r>   -8.2731    1.0000 </r>
       <r>   -8.2485    1.0000 </r>
       <r>   -8.2079    1.0000 </r>
       <r>   -8.0189    1.0000 </r>
       <r>   -8.0180    1.0000 </r>
       <r>   -7.9813    1.0000 </r>
       <r>   -7.9800    1.0000 </r>
       <r>   -7.3460    1.0000 </r>
       <r>   -7.3452    1.0000 </r>
       <r>   -6.3615    1.0000 </r>
       <r>   -6.3587    1.0000 </r>
       <r>   -6.3276    1.0000 </r>
       <r>   -6.3267    1.0000 </r>
       <r>   -5.5171    1.0000 </r>
       <r>   -5.4822    1.0000 </r>
       <r>   -5.3498    1.0000 </r>
       <r>   -5.3283    1.0000 </r>
       <r>   -5.3264    1.0000 </r>
       <r>   -5.2372    1.0000 </r>
       <r>   -5.1959    1.0000 </r>
       <r>   -5.1582    1.0000 </r>
       <r>   -5.1120    1.0000 </r>
       <r>   -5.0453    1.0000 </r>
       <r>   -3.7952    1.0000 </r>
       <r>   -3.6413    1.0000 </r>
       <r>   -1.4305    1.0000 </r>
       <r>   -1.3015    1.0000 </r>
       <r>   -1.0892    1.0000 </r>
       <r>   -0.9937    1.0000 </r>
       <r>   -0.5186    1.0000 </r>
       <r>   -0.5018    1.0000 </r>
       <r>   -0.4874    1.0000 </r>
       <r>   -0.4385    1.0000 </r>
       <r>   -0.1678    1.0000 </r>
       <r>   -0.1578    1.0000 </r>
       <r>   -0.1496    1.0000 </r>
       <r>   -0.1224    1.0000 </r>
       <r>    0.0798    1.0000 </r>
       <r>    0.1688    1.0000 </r>
       <r>    0.4047    1.0000 </r>
       <r>    0.4687    1.0000 </r>
       <r>    0.4832    1.0000 </r>
       <r>    0.6087    1.0000 </r>
       <r>    0.6266    1.0000 </r>
       <r>    0.6815    1.0000 </r>
       <r>    0.7280    1.0000 </r>
       <r>    0.7426    1.0000 </r>
       <r>    0.7638    1.0000 </r>
       <r>    0.7771    1.0000 </r>
       <r>    0.7975    1.0000 </r>
       <r>    0.8893    1.0000 </r>
       <r>    0.9474    1.0000 </r>
       <r>    0.9584    1.0000 </r>
       <r>    0.9780    1.0000 </r>
       <r>    1.0000    1.0000 </r>
       <r>    1.0425    1.0000 </r>
       <r>    1.0727    1.0000 </r>
       <r>    1.0979    1.0000 </r>
       <r>    1.2108    1.0000 </r>
       <r>    1.2532    1.0000 </r>
       <r>    1.2624    1.0000 </r>
       <r>    1.4117    1.0000 </r>
       <r>    1.4370    1.0000 </r>
       <r>    1.4695    1.0000 </r>
       <r>    1.4840    1.0000 </r>
       <r>    1.5233    1.0000 </r>
       <r>    1.5468    1.0000 </r>
       <r>    1.6008    1.0000 </r>
       <r>    1.6205    1.0000 </r>
       <r>    1.6322    1.0000 </r>
       <r>    1.7891    1.0000 </r>
       <r>    1.7930    1.0000 </r>
       <r>    1.8416    1.0000 </r>
       <r>    1.8782    1.0000 </r>
       <r>    1.8871    1.0000 </r>
       <r>    1.8918    1.0000 </r>
       <r>    1.9682    1.0000 </r>
       <r>    2.1066    1.0000 </r>
       <r>    2.1489    1.0000 </r>
       <r>    2.2471    1.0000 </r>
       <r>    2.2895    1.0000 </r>
       <r>    2.3553    1.0000 </r>
       <r>    2.3691    1.0000 </r>
       <r>    2.5030    1.0000 </r>
       <r>    2.5430    1.0000 </r>
       <r>    2.5812    1.0000 </r>
       <r>    2.5822    1.0000 </r>
       <r>    2.6065    1.0000 </r>
       <r>    2.6087    1.0000 </r>
       <r>    2.6414    1.0000 </r>
       <r>    2.6906    1.0000 </r>
       <r>    2.6932    1.0000 </r>
       <r>    2.7377    1.0000 </r>
       <r>    2.7498    1.0000 </r>
       <r>    2.7882    1.0000 </r>
       <r>    2.7911    1.0000 </r>
       <r>    2.8009    1.0000 </r>
       <r>    2.8833    1.0000 </r>
       <r>    2.9281    1.0000 </r>
       <r>    2.9312    1.0000 </r>
       <r>    2.9685    1.0000 </r>
       <r>    3.0396    1.0000 </r>
       <r>    3.0617    1.0000 </r>
       <r>    3.0858    1.0000 </r>
       <r>    3.1225    1.0000 </r>
       <r>    3.1229    1.0000 </r>
       <r>    3.1603    1.0000 </r>
       <r>    3.1756    1.0000 </r>
       <r>    3.1850    1.0000 </r>
       <r>    3.1913    1.0000 </r>
       <r>    3.2461    1.0000 </r>
       <r>    3.3155    1.0000 </r>
       <r>    3.3324    1.0000 </r>
       <r>    3.4129    1.0000 </r>
       <r>    3.4698    1.0000 </r>
       <r>    3.4900    1.0000 </r>
       <r>    3.5782    1.0000 </r>
       <r>    4.1992    1.0000 </r>
       <r>    4.2001    1.0000 </r>
       <r>    4.2339    1.0000 </r>
       <r>    4.2441    1.0000 </r>
       <r>    5.0635    0.0000 </r>
       <r>    5.0643    0.0000 </r>
       <r>    5.1754    0.0000 </r>
       <r>    5.1815    0.0000 </r>
       <r>    5.7540    0.0000 </r>
       <r>    5.7557    0.0000 </r>
       <r>    5.8232    0.0000 </r>
       <r>    5.8318    0.0000 </r>
       <r>    6.1122    0.0000 </r>
       <r>    6.1252    0.0000 </r>
       <r>    6.1369    0.0000 </r>
       <r>    6.1682    0.0000 </r>
       <r>    6.2470    0.0000 </r>
       <r>    6.2508    0.0000 </r>
       <r>    6.2734    0.0000 </r>
       <r>    6.2840    0.0000 </r>
       <r>    7.1043    0.0000 </r>
       <r>    7.1730    0.0000 </r>
       <r>    7.3252    0.0000 </r>
       <r>    7.3266    0.0000 </r>
       <r>    7.8164    0.0000 </r>
       <r>    7.8857    0.0000 </r>
       <r>    7.9323    0.0000 </r>
       <r>    7.9562    0.0000 </r>
       <r>    7.9922    0.0000 </r>
       <r>    8.0126    0.0000 </r>
       <r>    8.1530    0.0000 </r>
       <r>    8.1913    0.0000 </r>
       <r>    8.4334    0.0000 </r>
       <r>    8.6580    0.0000 </r>
       <r>    8.6811    0.0000 </r>
       <r>    8.7889    0.0000 </r>
       <r>    8.7989    0.0000 </r>
       <r>    8.8920    0.0000 </r>
       <r>    8.9351    0.0000 </r>
       <r>    9.0089    0.0000 </r>
       <r>    9.0557    0.0000 </r>
       <r>    9.0642    0.0000 </r>
       <r>    9.0861    0.0000 </r>
       <r>    9.1305    0.0000 </r>
       <r>    9.1521    0.0000 </r>
       <r>    9.1695    0.0000 </r>
       <r>    9.2046    0.0000 </r>
       <r>    9.2703    0.0000 </r>
       <r>    9.4611    0.0000 </r>
       <r>    9.5264    0.0000 </r>
      </set>
      <set comment="kpoint 2">
       <r>  -40.2681    1.0000 </r>
       <r>  -40.1715    1.0000 </r>
       <r>  -40.0501    1.0000 </r>
       <r>  -40.0499    1.0000 </r>
       <r>  -39.8058    1.0000 </r>
       <r>  -39.7903    1.0000 </r>
       <r>  -39.5539    1.0000 </r>
       <r>  -39.5531    1.0000 </r>
       <r>  -39.4332    1.0000 </r>
       <r>  -39.3688    1.0000 </r>
       <r>  -18.9203    1.0000 </r>
       <r>  -18.9173    1.0000 </r>
       <r>  -18.8502    1.0000 </r>
       <r>  -18.8481    1.0000 </r>
       <r>  -18.8432    1.0000 </r>
       <r>  -18.8411    1.0000 </r>
       <r>  -18.7467    1.0000 </r>
       <r>  -18.7439    1.0000 </r>
       <r>  -18.7333    1.0000 </r>
       <r>  -18.7307    1.0000 </r>
       <r>  -18.7129    1.0000 </r>
       <r>  -18.7093    1.0000 </r>
       <r>  -18.7035    1.0000 </r>
       <r>  -18.7000    1.0000 </r>
       <r>  -18.6968    1.0000 </r>
       <r>  -18.6924    1.0000 </r>
       <r>  -18.6452    1.0000 </r>
       <r>  -18.6438    1.0000 </r>
       <r>  -18.6359    1.0000 </r>
       <r>  -18.6343    1.0000 </r>
       <r>  -18.6342    1.0000 </r>
       <r>  -18.6335    1.0000 </r>
       <r>  -18.6320    1.0000 </r>
       <r>  -18.6304    1.0000 </r>
       <r>  -18.6299    1.0000 </r>
       <r>  -18.6290    1.0000 </r>
       <r>  -18.6277    1.0000 </r>
       <r>  -18.6270    1.0000 </r>
       <r>  -18.6251    1.0000 </r>
       <r>  -18.6245    1.0000 </r>
       <r>  -18.6222    1.0000 </r>
       <r>  -18.6215    1.0000 </r>
       <r>  -18.6189    1.0000 </r>
       <r>  -18.6181    1.0000 </r>
       <r>  -18.6135    1.0000 </r>
       <r>  -18.6126    1.0000 </r>
       <r>  -18.6117    1.0000 </r>
       <r>  -18.6109    1.0000 </r>
       <r>  -18.6070    1.0000 </r>
       <r>  -18.6064    1.0000 </r>
       <r>  -18.5630    1.0000 </r>
       <r>  -18.5605    1.0000 </r>
       <r>  -18.5575    1.0000 </r>
       <r>  -18.5531    1.0000 </r>
       <r>  -18.5496    1.0000 </r>
       <r>  -18.5473    1.0000 </r>
       <r>  -18.5403    1.0000 </r>
       <r>  -18.5402    1.0000 </r>
       <r>  -18.5366    1.0000 </r>
       <r>  -18.5359    1.0000 </r>
       <r>  -18.4905    1.0000 </r>
       <r>  -18.4886    1.0000 </r>
       <r>  -18.4788    1.0000 </r>
       <r>  -18.4778    1.0000 </r>
       <r>  -18.4765    1.0000 </r>
       <r>  -18.4746    1.0000 </r>
       <r>  -18.4681    1.0000 </r>
       <r>  -18.4675    1.0000 </r>
       <r>  -18.4673    1.0000 </r>
       <r>  -18.4668    1.0000 </r>
       <r>  -18.4665    1.0000 </r>
       <r>  -18.4659    1.0000 </r>
       <r>  -18.4652    1.0000 </r>
       <r>  -18.4641    1.0000 </r>
       <r>  -18.4499    1.0000 </r>
       <r>  -18.4491    1.0000 </r>
       <r>  -18.4071    1.0000 </r>
       <r>  -18.4037    1.0000 </r>
       <r>  -18.3884    1.0000 </r>
       <r>  -18.3851    1.0000 </r>
       <r>  -18.3847    1.0000 </r>
       <r>  -18.3843    1.0000 </r>
       <r>  -18.3719    1.0000 </r>
       <r>  -18.3714    1.0000 </r>
       <r>  -18.2922    1.0000 </r>
       <r>  -18.2914    1.0000 </r>
       <r>  -18.1775    1.0000 </r>
       <r>  -18.1766    1.0000 </r>
       <r>  -18.1640    1.0000 </r>
       <r>  -18.1626    1.0000 </r>
       <r>  -13.5334    1.0000 </r>
       <r>  -13.4631    1.0000 </r>
       <r>  -12.8850    1.0000 </r>
       <r>  -12.8047    1.0000 </r>
       <r>  -12.7908    1.0000 </r>
       <r>  -12.7317    1.0000 </r>
       <r>  -12.7073    1.0000 </r>
       <r>  -12.6937    1.0000 </r>
       <r>  -12.6475    1.0000 </r>
       <r>  -12.6456    1.0000 </r>
       <r>  -12.6223    1.0000 </r>
       <r>  -12.5962    1.0000 </r>
       <r>  -12.5941    1.0000 </r>
       <r>  -12.5513    1.0000 </r>
       <r>  -11.9534    1.0000 </r>
       <r>  -11.8905    1.0000 </r>
       <r>   -9.1724    1.0000 </r>
       <r>   -9.0136    1.0000 </r>
       <r>   -8.8973    1.0000 </r>
       <r>   -8.7358    1.0000 </r>
       <r>   -8.3906    1.0000 </r>
       <r>   -8.3819    1.0000 </r>
       <r>   -8.2524    1.0000 </r>
       <r>   -8.2461    1.0000 </r>
       <r>   -8.1892    1.0000 </r>
       <r>   -8.1815    1.0000 </r>
       <r>   -8.0490    1.0000 </r>
       <r>   -8.0436    1.0000 </r>
       <r>   -7.7410    1.0000 </r>
       <r>   -7.6288    1.0000 </r>
       <r>   -7.6233    1.0000 </r>
       <r>   -7.5104    1.0000 </r>
       <r>   -6.0114    1.0000 </r>
       <r>   -6.0037    1.0000 </r>
       <r>   -5.8289    1.0000 </r>
       <r>   -5.8223    1.0000 </r>
       <r>   -5.7909    1.0000 </r>
       <r>   -5.7823    1.0000 </r>
       <r>   -5.7256    1.0000 </r>
       <r>   -5.6541    1.0000 </r>
       <r>   -5.6426    1.0000 </r>
       <r>   -5.6402    1.0000 </r>
       <r>   -5.5192    1.0000 </r>
       <r>   -5.4441    1.0000 </r>
       <r>   -4.4962    1.0000 </r>
       <r>   -4.3344    1.0000 </r>
       <r>   -4.3326    1.0000 </r>
       <r>   -4.1595    1.0000 </r>
       <r>   -1.2267    1.0000 </r>
       <r>   -1.0279    1.0000 </r>
       <r>   -0.8853    1.0000 </r>
       <r>   -0.7096    1.0000 </r>
       <r>   -0.3833    1.0000 </r>
       <r>   -0.2127    1.0000 </r>
       <r>   -0.1276    1.0000 </r>
       <r>    0.0649    1.0000 </r>
       <r>    0.0838    1.0000 </r>
       <r>    0.1403    1.0000 </r>
       <r>    0.1693    1.0000 </r>
       <r>    0.2080    1.0000 </r>
       <r>    0.2462    1.0000 </r>
       <r>    0.2812    1.0000 </r>
       <r>    0.3814    1.0000 </r>
       <r>    0.4227    1.0000 </r>
       <r>    0.4677    1.0000 </r>
       <r>    0.5083    1.0000 </r>
       <r>    0.5238    1.0000 </r>
       <r>    0.5960    1.0000 </r>
       <r>    0.6029    1.0000 </r>
       <r>    0.6286    1.0000 </r>
       <r>    0.6451    1.0000 </r>
       <r>    0.7214    1.0000 </r>
       <r>    0.7880    1.0000 </r>
       <r>    0.8272    1.0000 </r>
       <r>    0.8555    1.0000 </r>
       <r>    1.0206    1.0000 </r>
       <r>    1.0384    1.0000 </r>
       <r>    1.0751    1.0000 </r>
       <r>    1.1027    1.0000 </r>
       <r>    1.1623    1.0000 </r>
       <r>    1.1698    1.0000 </r>
       <r>    1.2022    1.0000 </r>
       <r>    1.2457    1.0000 </r>
       <r>    1.2630    1.0000 </r>
       <r>    1.2963    1.0000 </r>
       <r>    1.3225    1.0000 </r>
       <r>    1.4753    1.0000 </r>
       <r>    1.4765    1.0000 </r>
       <r>    1.5261    1.0000 </r>
       <r>    1.5364    1.0000 </r>
       <r>    1.5577    1.0000 </r>
       <r>    1.6086    1.0000 </r>
       <r>    1.6270    1.0000 </r>
       <r>    1.6483    1.0000 </r>
       <r>    1.7656    1.0000 </r>
       <r>    1.7731    1.0000 </r>
       <r>    1.7966    1.0000 </r>
       <r>    1.8474    1.0000 </r>
       <r>    1.8572    1.0000 </r>
       <r>    1.9506    1.0000 </r>
       <r>    1.9913    1.0000 </r>
       <r>    2.0029    1.0000 </r>
       <r>    2.0625    1.0000 </r>
       <r>    2.0874    1.0000 </r>
       <r>    2.1312    1.0000 </r>
       <r>    2.1844    1.0000 </r>
       <r>    2.2391    1.0000 </r>
       <r>    2.2748    1.0000 </r>
       <r>    2.3065    1.0000 </r>
       <r>    2.3794    1.0000 </r>
       <r>    2.4431    1.0000 </r>
       <r>    2.4499    1.0000 </r>
       <r>    2.4572    1.0000 </r>
       <r>    2.5311    1.0000 </r>
       <r>    2.5959    1.0000 </r>
       <r>    2.6024    1.0000 </r>
       <r>    2.6431    1.0000 </r>
       <r>    2.6499    1.0000 </r>
       <r>    2.7289    1.0000 </r>
       <r>    2.7469    1.0000 </r>
       <r>    2.7745    1.0000 </r>
       <r>    2.7887    1.0000 </r>
       <r>    2.8066    1.0000 </r>
       <r>    2.9176    1.0000 </r>
       <r>    2.9250    1.0000 </r>
       <r>    2.9420    1.0000 </r>
       <r>    2.9778    1.0000 </r>
       <r>    2.9822    1.0000 </r>
       <r>    3.0614    1.0000 </r>
       <r>    3.0643    1.0000 </r>
       <r>    3.1627    1.0000 </r>
       <r>    3.1668    1.0000 </r>
       <r>    3.1709    1.0000 </r>
       <r>    3.2631    1.0000 </r>
       <r>    3.3347    1.0000 </r>
       <r>    3.4426    1.0000 </r>
       <r>    3.4487    1.0000 </r>
       <r>    3.4679    1.0000 </r>
       <r>    3.5410    1.0000 </r>
       <r>    3.5489    1.0000 </r>
       <r>    3.5786    1.0000 </r>
       <r>    3.6111    1.0000 </r>
       <r>    3.6955    1.0000 </r>
       <r>    3.7364    1.0000 </r>
       <r>    5.5701    0.0000 </r>
       <r>    5.5741    0.0000 </r>
       <r>    5.7252    0.0000 </r>
       <r>    5.7268    0.0000 </r>
       <r>    5.7553    0.0000 </r>
       <r>    5.7675    0.0000 </r>
       <r>    5.9103    0.0000 </r>
       <r>    5.9263    0.0000 </r>
       <r>    7.1945    0.0000 </r>
       <r>    7.2509    0.0000 </r>
       <r>    7.2750    0.0000 </r>
       <r>    7.3593    0.0000 </r>
       <r>    7.4079    0.0000 </r>
       <r>    7.4405    0.0000 </r>
       <r>    7.4565    0.0000 </r>
       <r>    7.4907    0.0000 </r>
       <r>    7.5083    0.0000 </r>
       <r>    7.5207    0.0000 </r>
       <r>    7.6042    0.0000 </r>
       <r>    7.6408    0.0000 </r>
       <r>    7.8158    0.0000 </r>
       <r>    7.8335    0.0000 </r>
       <r>    7.8733    0.0000 </r>
       <r>    7.8829    0.0000 </r>
       <r>    7.8975    0.0000 </r>
       <r>    7.9174    0.0000 </r>
       <r>    7.9617    0.0000 </r>
       <r>    7.9759    0.0000 </r>
       <r>    8.0002    0.0000 </r>
       <r>    8.0017    0.0000 </r>
       <r>    8.0617    0.0000 </r>
       <r>    8.0738    0.0000 </r>
       <r>    8.2461    0.0000 </r>
       <r>    8.3124    0.0000 </r>
       <r>    8.4463    0.0000 </r>
       <r>    8.6490    0.0000 </r>
       <r>    8.6596    0.0000 </r>
       <r>    8.7291    0.0000 </r>
       <r>    8.7579    0.0000 </r>
       <r>    8.7659    0.0000 </r>
       <r>    8.7840    0.0000 </r>
       <r>    8.8751    0.0000 </r>
       <r>    8.9333    0.0000 </r>
       <r>    8.9483    0.0000 </r>
       <r>    9.1159    0.0000 </r>
       <r>    9.3533    0.0000 </r>
      </set>
      <set comment="kpoint 3">
       <r>  -40.2681    1.0000 </r>
       <r>  -40.1715    1.0000 </r>
       <r>  -40.0501    1.0000 </r>
       <r>  -40.0499    1.0000 </r>
       <r>  -39.8058    1.0000 </r>
       <r>  -39.7903    1.0000 </r>
       <r>  -39.5539    1.0000 </r>
       <r>  -39.5531    1.0000 </r>
       <r>  -39.4332    1.0000 </r>
       <r>  -39.3688    1.0000 </r>
       <r>  -18.9204    1.0000 </r>
       <r>  -18.9172    1.0000 </r>
       <r>  -18.8502    1.0000 </r>
       <r>  -18.8481    1.0000 </r>
       <r>  -18.8432    1.0000 </r>
       <r>  -18.8411    1.0000 </r>
       <r>  -18.7467    1.0000 </r>
       <r>  -18.7439    1.0000 </r>
       <r>  -18.7333    1.0000 </r>
       <r>  -18.7307    1.0000 </r>
       <r>  -18.7131    1.0000 </r>
       <r>  -18.7095    1.0000 </r>
       <r>  -18.7036    1.0000 </r>
       <r>  -18.7001    1.0000 </r>
       <r>  -18.6968    1.0000 </r>
       <r>  -18.6925    1.0000 </r>
       <r>  -18.6447    1.0000 </r>
       <r>  -18.6432    1.0000 </r>
       <r>  -18.6356    1.0000 </r>
       <r>  -18.6343    1.0000 </r>
       <r>  -18.6340    1.0000 </r>
       <r>  -18.6335    1.0000 </r>
       <r>  -18.6323    1.0000 </r>
       <r>  -18.6310    1.0000 </r>
       <r>  -18.6297    1.0000 </r>
       <r>  -18.6285    1.0000 </r>
       <r>  -18.6273    1.0000 </r>
       <r>  -18.6268    1.0000 </r>
       <r>  -18.6232    1.0000 </r>
       <r>  -18.6226    1.0000 </r>
       <r>  -18.6225    1.0000 </r>
       <r>  -18.6219    1.0000 </r>
       <r>  -18.6213    1.0000 </r>
       <r>  -18.6205    1.0000 </r>
       <r>  -18.6137    1.0000 </r>
       <r>  -18.6124    1.0000 </r>
       <r>  -18.6113    1.0000 </r>
       <r>  -18.6104    1.0000 </r>
       <r>  -18.6073    1.0000 </r>
       <r>  -18.6065    1.0000 </r>
       <r>  -18.5630    1.0000 </r>
       <r>  -18.5606    1.0000 </r>
       <r>  -18.5575    1.0000 </r>
       <r>  -18.5531    1.0000 </r>
       <r>  -18.5495    1.0000 </r>
       <r>  -18.5472    1.0000 </r>
       <r>  -18.5403    1.0000 </r>
       <r>  -18.5403    1.0000 </r>
       <r>  -18.5365    1.0000 </r>
       <r>  -18.5359    1.0000 </r>
       <r>  -18.4905    1.0000 </r>
       <r>  -18.4885    1.0000 </r>
       <r>  -18.4787    1.0000 </r>
       <r>  -18.4779    1.0000 </r>
       <r>  -18.4765    1.0000 </r>
       <r>  -18.4746    1.0000 </r>
       <r>  -18.4681    1.0000 </r>
       <r>  -18.4675    1.0000 </r>
       <r>  -18.4673    1.0000 </r>
       <r>  -18.4668    1.0000 </r>
       <r>  -18.4665    1.0000 </r>
       <r>  -18.4659    1.0000 </r>
       <r>  -18.4652    1.0000 </r>
       <r>  -18.4641    1.0000 </r>
       <r>  -18.4499    1.0000 </r>
       <r>  -18.4491    1.0000 </r>
       <r>  -18.4070    1.0000 </r>
       <r>  -18.4037    1.0000 </r>
       <r>  -18.3884    1.0000 </r>
       <r>  -18.3851    1.0000 </r>
       <r>  -18.3847    1.0000 </r>
       <r>  -18.3843    1.0000 </r>
       <r>  -18.3719    1.0000 </r>
       <r>  -18.3714    1.0000 </r>
       <r>  -18.2924    1.0000 </r>
       <r>  -18.2912    1.0000 </r>
       <r>  -18.1775    1.0000 </r>
       <r>  -18.1766    1.0000 </r>
       <r>  -18.1640    1.0000 </r>
       <r>  -18.1626    1.0000 </r>
       <r>  -13.5333    1.0000 </r>
       <r>  -13.4633    1.0000 </r>
       <r>  -12.8941    1.0000 </r>
       <r>  -12.7947    1.0000 </r>
       <r>  -12.7733    1.0000 </r>
       <r>  -12.7349    1.0000 </r>
       <r>  -12.7090    1.0000 </r>
       <r>  -12.7028    1.0000 </r>
       <r>  -12.6505    1.0000 </r>
       <r>  -12.6491    1.0000 </r>
       <r>  -12.6258    1.0000 </r>
       <r>  -12.5934    1.0000 </r>
       <r>  -12.5909    1.0000 </r>
       <r>  -12.5525    1.0000 </r>
       <r>  -11.9524    1.0000 </r>
       <r>  -11.8922    1.0000 </r>
       <r>   -9.3061    1.0000 </r>
       <r>   -9.0281    1.0000 </r>
       <r>   -8.5392    1.0000 </r>
       <r>   -8.5103    1.0000 </r>
       <r>   -8.4928    1.0000 </r>
       <r>   -8.4488    1.0000 </r>
       <r>   -8.2777    1.0000 </r>
       <r>   -8.2533    1.0000 </r>
       <r>   -8.2278    1.0000 </r>
       <r>   -8.1889    1.0000 </r>
       <r>   -8.0228    1.0000 </r>
       <r>   -8.0220    1.0000 </r>
       <r>   -7.9841    1.0000 </r>
       <r>   -7.9831    1.0000 </r>
       <r>   -7.3490    1.0000 </r>
       <r>   -7.3478    1.0000 </r>
       <r>   -6.3528    1.0000 </r>
       <r>   -6.3480    1.0000 </r>
       <r>   -6.3181    1.0000 </r>
       <r>   -6.3169    1.0000 </r>
       <r>   -5.5339    1.0000 </r>
       <r>   -5.4671    1.0000 </r>
       <r>   -5.3858    1.0000 </r>
       <r>   -5.3748    1.0000 </r>
       <r>   -5.3676    1.0000 </r>
       <r>   -5.2572    1.0000 </r>
       <r>   -5.1414    1.0000 </r>
       <r>   -5.1022    1.0000 </r>
       <r>   -5.0695    1.0000 </r>
       <r>   -4.9977    1.0000 </r>
       <r>   -3.8677    1.0000 </r>
       <r>   -3.5574    1.0000 </r>
       <r>   -1.3461    1.0000 </r>
       <r>   -1.2618    1.0000 </r>
       <r>   -1.2027    1.0000 </r>
       <r>   -1.0463    1.0000 </r>
       <r>   -0.4130    1.0000 </r>
       <r>   -0.4016    1.0000 </r>
       <r>   -0.3980    1.0000 </r>
       <r>   -0.3725    1.0000 </r>
       <r>   -0.3496    1.0000 </r>
       <r>   -0.2993    1.0000 </r>
       <r>   -0.2742    1.0000 </r>
       <r>   -0.2149    1.0000 </r>
       <r>   -0.1359    1.0000 </r>
       <r>    0.0683    1.0000 </r>
       <r>    0.1156    1.0000 </r>
       <r>    0.2724    1.0000 </r>
       <r>    0.3287    1.0000 </r>
       <r>    0.3313    1.0000 </r>
       <r>    0.4140    1.0000 </r>
       <r>    0.4926    1.0000 </r>
       <r>    0.5242    1.0000 </r>
       <r>    0.5561    1.0000 </r>
       <r>    0.7088    1.0000 </r>
       <r>    0.7605    1.0000 </r>
       <r>    0.7873    1.0000 </r>
       <r>    0.8220    1.0000 </r>
       <r>    0.8319    1.0000 </r>
       <r>    0.9568    1.0000 </r>
       <r>    1.0065    1.0000 </r>
       <r>    1.1202    1.0000 </r>
       <r>    1.2216    1.0000 </r>
       <r>    1.2350    1.0000 </r>
       <r>    1.2737    1.0000 </r>
       <r>    1.2747    1.0000 </r>
       <r>    1.3441    1.0000 </r>
       <r>    1.4162    1.0000 </r>
       <r>    1.4621    1.0000 </r>
       <r>    1.5034    1.0000 </r>
       <r>    1.5297    1.0000 </r>
       <r>    1.6697    1.0000 </r>
       <r>    1.7085    1.0000 </r>
       <r>    1.7208    1.0000 </r>
       <r>    1.7516    1.0000 </r>
       <r>    1.8165    1.0000 </r>
       <r>    1.8301    1.0000 </r>
       <r>    1.8411    1.0000 </r>
       <r>    1.8728    1.0000 </r>
       <r>    1.8837    1.0000 </r>
       <r>    1.9861    1.0000 </r>
       <r>    2.0263    1.0000 </r>
       <r>    2.0606    1.0000 </r>
       <r>    2.1205    1.0000 </r>
       <r>    2.1268    1.0000 </r>
       <r>    2.1630    1.0000 </r>
       <r>    2.3072    1.0000 </r>
       <r>    2.3462    1.0000 </r>
       <r>    2.4375    1.0000 </r>
       <r>    2.4865    1.0000 </r>
       <r>    2.5165    1.0000 </r>
       <r>    2.5585    1.0000 </r>
       <r>    2.5681    1.0000 </r>
       <r>    2.5830    1.0000 </r>
       <r>    2.5843    1.0000 </r>
       <r>    2.5972    1.0000 </r>
       <r>    2.6044    1.0000 </r>
       <r>    2.6076    1.0000 </r>
       <r>    2.6611    1.0000 </r>
       <r>    2.7089    1.0000 </r>
       <r>    2.7099    1.0000 </r>
       <r>    2.7937    1.0000 </r>
       <r>    2.8315    1.0000 </r>
       <r>    2.8353    1.0000 </r>
       <r>    2.8585    1.0000 </r>
       <r>    2.8791    1.0000 </r>
       <r>    2.9316    1.0000 </r>
       <r>    2.9787    1.0000 </r>
       <r>    2.9846    1.0000 </r>
       <r>    3.0178    1.0000 </r>
       <r>    3.0272    1.0000 </r>
       <r>    3.0486    1.0000 </r>
       <r>    3.0718    1.0000 </r>
       <r>    3.1146    1.0000 </r>
       <r>    3.1700    1.0000 </r>
       <r>    3.3034    1.0000 </r>
       <r>    3.3462    1.0000 </r>
       <r>    3.3872    1.0000 </r>
       <r>    3.4250    1.0000 </r>
       <r>    3.4389    1.0000 </r>
       <r>    3.4584    1.0000 </r>
       <r>    3.4924    1.0000 </r>
       <r>    3.5399    1.0000 </r>
       <r>    3.5874    1.0000 </r>
       <r>    4.2473    1.0000 </r>
       <r>    4.2499    1.0000 </r>
       <r>    4.2867    1.0000 </r>
       <r>    4.2931    1.0000 </r>
       <r>    5.1352    0.0000 </r>
       <r>    5.1389    0.0000 </r>
       <r>    5.2397    0.0000 </r>
       <r>    5.2425    0.0000 </r>
       <r>    5.7620    0.0000 </r>
       <r>    5.7642    0.0000 </r>
       <r>    5.8327    0.0000 </r>
       <r>    5.8379    0.0000 </r>
       <r>    6.1706    0.0000 </r>
       <r>    6.1803    0.0000 </r>
       <r>    6.1913    0.0000 </r>
       <r>    6.2124    0.0000 </r>
       <r>    6.2578    0.0000 </r>
       <r>    6.2618    0.0000 </r>
       <r>    6.2826    0.0000 </r>
       <r>    6.3011    0.0000 </r>
       <r>    6.7788    0.0000 </r>
       <r>    6.9121    0.0000 </r>
       <r>    7.0414    0.0000 </r>
       <r>    7.0733    0.0000 </r>
       <r>    7.2161    0.0000 </r>
       <r>    7.3176    0.0000 </r>
       <r>    7.4948    0.0000 </r>
       <r>    7.5116    0.0000 </r>
       <r>    7.7811    0.0000 </r>
       <r>    7.8433    0.0000 </r>
       <r>    7.9453    0.0000 </r>
       <r>    8.0004    0.0000 </r>
       <r>    8.0082    0.0000 </r>
       <r>    8.3179    0.0000 </r>
       <r>    8.3532    0.0000 </r>
       <r>    8.4687    0.0000 </r>
       <r>    8.7122    0.0000 </r>
       <r>    8.8062    0.0000 </r>
       <r>    8.9508    0.0000 </r>
       <r>    8.9686    0.0000 </r>
       <r>    9.0503    0.0000 </r>
       <r>    9.0780    0.0000 </r>
       <r>    9.0805    0.0000 </r>
       <r>    9.1021    0.0000 </r>
       <r>    9.1081    0.0000 </r>
       <r>    9.1441    0.0000 </r>
       <r>    9.1538    0.0000 </r>
       <r>    9.2321    0.0000 </r>
       <r>    9.5351    0.0000 </r>
       <r>    9.6627    0.0000 </r>
      </set>
      <set comment="kpoint 4">
       <r>  -40.2681    1.0000 </r>
       <r>  -40.1715    1.0000 </r>
       <r>  -40.0501    1.0000 </r>
       <r>  -40.0499    1.0000 </r>
       <r>  -39.8058    1.0000 </r>
       <r>  -39.7903    1.0000 </r>
       <r>  -39.5539    1.0000 </r>
       <r>  -39.5531    1.0000 </r>
       <r>  -39.4332    1.0000 </r>
       <r>  -39.3688    1.0000 </r>
       <r>  -18.9204    1.0000 </r>
       <r>  -18.9172    1.0000 </r>
       <r>  -18.8502    1.0000 </r>
       <r>  -18.8481    1.0000 </r>
       <r>  -18.8432    1.0000 </r>
       <r>  -18.8411    1.0000 </r>
       <r>  -18.7467    1.0000 </r>
       <r>  -18.7439    1.0000 </r>
       <r>  -18.7333    1.0000 </r>
       <r>  -18.7307    1.0000 </r>
       <r>  -18.7129    1.0000 </r>
       <r>  -18.7093    1.0000 </r>
       <r>  -18.7035    1.0000 </r>
       <r>  -18.7000    1.0000 </r>
       <r>  -18.6968    1.0000 </r>
       <r>  -18.6924    1.0000 </r>
       <r>  -18.6452    1.0000 </r>
       <r>  -18.6438    1.0000 </r>
       <r>  -18.6359    1.0000 </r>
       <r>  -18.6344    1.0000 </r>
       <r>  -18.6342    1.0000 </r>
       <r>  -18.6335    1.0000 </r>
       <r>  -18.6321    1.0000 </r>
       <r>  -18.6303    1.0000 </r>
       <r>  -18.6299    1.0000 </r>
       <r>  -18.6290    1.0000 </r>
       <r>  -18.6277    1.0000 </r>
       <r>  -18.6270    1.0000 </r>
       <r>  -18.6251    1.0000 </r>
       <r>  -18.6245    1.0000 </r>
       <r>  -18.6222    1.0000 </r>
       <r>  -18.6215    1.0000 </r>
       <r>  -18.6189    1.0000 </r>
       <r>  -18.6181    1.0000 </r>
       <r>  -18.6138    1.0000 </r>
       <r>  -18.6124    1.0000 </r>
       <r>  -18.6116    1.0000 </r>
       <r>  -18.6108    1.0000 </r>
       <r>  -18.6071    1.0000 </r>
       <r>  -18.6063    1.0000 </r>
       <r>  -18.5630    1.0000 </r>
       <r>  -18.5606    1.0000 </r>
       <r>  -18.5575    1.0000 </r>
       <r>  -18.5531    1.0000 </r>
       <r>  -18.5496    1.0000 </r>
       <r>  -18.5473    1.0000 </r>
       <r>  -18.5403    1.0000 </r>
       <r>  -18.5402    1.0000 </r>
       <r>  -18.5365    1.0000 </r>
       <r>  -18.5359    1.0000 </r>
       <r>  -18.4904    1.0000 </r>
       <r>  -18.4885    1.0000 </r>
[...]
       <r>    8.8738    0.0000 </r>
       <r>    8.8894    0.0000 </r>
       <r>    8.9088    0.0000 </r>
       <r>    8.9155    0.0000 </r>
       <r>    8.9474    0.0000 </r>
      </set>
     </set>
    </set>
   </array>
  </eigenvalues>
  <separator name="orbital magnetization" >
   <v name="MAGDIPOLOUT">      0.00000000      0.00000000      0.00000000</v>
  </separator>
  <dos>
   <i name="efermi">      4.33257477 </i>
   <total>
    <array>
     <dimension dim="1">gridpoints</dimension>
     <dimension dim="2">spin</dimension>
     <field>energy</field>
     <field>total</field>
     <field>integrated</field>
     <set>
      <set comment="spin 1">
       <r>   -42.7646     0.0000     0.0000 </r>
       <r>   -42.5816     0.0000     0.0000 </r>
       <r>   -42.3985     0.0000     0.0000 </r>
       <r>   -42.2154     0.0000     0.0000 </r>
       <r>   -42.0323     0.0000     0.0000 </r>
       <r>   -41.8492     0.0000     0.0000 </r>
       <r>   -41.6662     0.0000     0.0000 </r>
       <r>   -41.4831     0.0000     0.0000 </r>
       <r>   -41.3000     0.0000     0.0000 </r>
       <r>   -41.1169     0.0000     0.0000 </r>
       <r>   -40.9339     0.0000     0.0000 </r>
       <r>   -40.7508     0.0000     0.0000 </r>
       <r>   -40.5677     0.0000     0.0000 </r>
       <r>   -40.3846     0.0000     0.0000 </r>
       <r>   -40.2015     0.0000     2.0000 </r>
       <r>   -40.0185     0.0000     8.0000 </r>
       <r>   -39.8354     0.0000     8.0000 </r>
       <r>   -39.6523     0.0000    12.0000 </r>
       <r>   -39.4692     0.0000    16.0000 </r>
       <r>   -39.2861     0.0000    20.0000 </r>
       <r>   -39.1031     0.0000    20.0000 </r>
       <r>   -38.9200     0.0000    20.0000 </r>
       <r>   -38.7369     0.0000    20.0000 </r>
       <r>   -38.5538     0.0000    20.0000 </r>
       <r>   -38.3707     0.0000    20.0000 </r>
       <r>   -38.1877     0.0000    20.0000 </r>
       <r>   -38.0046     0.0000    20.0000 </r>
       <r>   -37.8215     0.0000    20.0000 </r>
       <r>   -37.6384     0.0000    20.0000 </r>
       <r>   -37.4553     0.0000    20.0000 </r>
       <r>   -37.2723     0.0000    20.0000 </r>
       <r>   -37.0892     0.0000    20.0000 </r>
       <r>   -36.9061     0.0000    20.0000 </r>
       <r>   -36.7230     0.0000    20.0000 </r>
       <r>   -36.5399     0.0000    20.0000 </r>
       <r>   -36.3569     0.0000    20.0000 </r>
       <r>   -36.1738     0.0000    20.0000 </r>
       <r>   -35.9907     0.0000    20.0000 </r>
       <r>   -35.8076     0.0000    20.0000 </r>
       <r>   -35.6245     0.0000    20.0000 </r>
       <r>   -35.4415     0.0000    20.0000 </r>
       <r>   -35.2584     0.0000    20.0000 </r>
       <r>   -35.0753     0.0000    20.0000 </r>
       <r>   -34.8922     0.0000    20.0000 </r>
       <r>   -34.7091     0.0000    20.0000 </r>
       <r>   -34.5261     0.0000    20.0000 </r>
       <r>   -34.3430     0.0000    20.0000 </r>
       <r>   -34.1599     0.0000    20.0000 </r>
       <r>   -33.9768     0.0000    20.0000 </r>
       <r>   -33.7937     0.0000    20.0000 </r>
       <r>   -33.6107     0.0000    20.0000 </r>
       <r>   -33.4276     0.0000    20.0000 </r>
       <r>   -33.2445     0.0000    20.0000 </r>
       <r>   -33.0614     0.0000    20.0000 </r>
       <r>   -32.8783     0.0000    20.0000 </r>
       <r>   -32.6953     0.0000    20.0000 </r>
       <r>   -32.5122     0.0000    20.0000 </r>
       <r>   -32.3291     0.0000    20.0000 </r>
       <r>   -32.1460     0.0000    20.0000 </r>
       <r>   -31.9630     0.0000    20.0000 </r>
       <r>   -31.7799     0.0000    20.0000 </r>
       <r>   -31.5968     0.0000    20.0000 </r>
       <r>   -31.4137     0.0000    20.0000 </r>
       <r>   -31.2306     0.0000    20.0000 </r>
       <r>   -31.0476     0.0000    20.0000 </r>
       <r>   -30.8645     0.0000    20.0000 </r>
       <r>   -30.6814     0.0000    20.0000 </r>
       <r>   -30.4983     0.0000    20.0000 </r>
       <r>   -30.3152     0.0000    20.0000 </r>
       <r>   -30.1322     0.0000    20.0000 </r>
       <r>   -29.9491     0.0000    20.0000 </r>
       <r>   -29.7660     0.0000    20.0000 </r>
       <r>   -29.5829     0.0000    20.0000 </r>
       <r>   -29.3998     0.0000    20.0000 </r>
       <r>   -29.2168     0.0000    20.0000 </r>
       <r>   -29.0337     0.0000    20.0000 </r>
       <r>   -28.8506     0.0000    20.0000 </r>
       <r>   -28.6675     0.0000    20.0000 </r>
       <r>   -28.4844     0.0000    20.0000 </r>
       <r>   -28.3014     0.0000    20.0000 </r>
       <r>   -28.1183     0.0000    20.0000 </r>
       <r>   -27.9352     0.0000    20.0000 </r>
       <r>   -27.7521     0.0000    20.0000 </r>
       <r>   -27.5690     0.0000    20.0000 </r>
       <r>   -27.3860     0.0000    20.0000 </r>
       <r>   -27.2029     0.0000    20.0000 </r>
       <r>   -27.0198     0.0000    20.0000 </r>
       <r>   -26.8367     0.0000    20.0000 </r>
       <r>   -26.6536     0.0000    20.0000 </r>
       <r>   -26.4706     0.0000    20.0000 </r>
       <r>   -26.2875     0.0000    20.0000 </r>
       <r>   -26.1044     0.0000    20.0000 </r>
       <r>   -25.9213     0.0000    20.0000 </r>
       <r>   -25.7382     0.0000    20.0000 </r>
       <r>   -25.5552     0.0000    20.0000 </r>
       <r>   -25.3721     0.0000    20.0000 </r>
       <r>   -25.1890     0.0000    20.0000 </r>
       <r>   -25.0059     0.0000    20.0000 </r>
       <r>   -24.8228     0.0000    20.0000 </r>
       <r>   -24.6398     0.0000    20.0000 </r>
       <r>   -24.4567     0.0000    20.0000 </r>
       <r>   -24.2736     0.0000    20.0000 </r>
       <r>   -24.0905     0.0000    20.0000 </r>
       <r>   -23.9074     0.0000    20.0000 </r>
       <r>   -23.7244     0.0000    20.0000 </r>
       <r>   -23.5413     0.0000    20.0000 </r>
       <r>   -23.3582     0.0000    20.0000 </r>
       <r>   -23.1751     0.0000    20.0000 </r>
       <r>   -22.9921     0.0000    20.0000 </r>
       <r>   -22.8090     0.0000    20.0000 </r>
       <r>   -22.6259     0.0000    20.0000 </r>
       <r>   -22.4428     0.0000    20.0000 </r>
       <r>   -22.2597     0.0000    20.0000 </r>
       <r>   -22.0767     0.0000    20.0000 </r>
       <r>   -21.8936     0.0000    20.0000 </r>
       <r>   -21.7105     0.0000    20.0000 </r>
       <r>   -21.5274     0.0000    20.0000 </r>
       <r>   -21.3443     0.0000    20.0000 </r>
       <r>   -21.1613     0.0000    20.0000 </r>
       <r>   -20.9782     0.0000    20.0000 </r>
       <r>   -20.7951     0.0000    20.0000 </r>
       <r>   -20.6120     0.0000    20.0000 </r>
       <r>   -20.4289     0.0000    20.0000 </r>
       <r>   -20.2459     0.0000    20.0000 </r>
       <r>   -20.0628     0.0000    20.0000 </r>
       <r>   -19.8797     0.0000    20.0000 </r>
       <r>   -19.6966     0.0000    20.0000 </r>
       <r>   -19.5135     0.0000    20.0000 </r>
       <r>   -19.3305     0.0000    20.0000 </r>
       <r>   -19.1474     0.0000    20.0000 </r>
       <r>   -18.9643     0.0000    20.0000 </r>
       <r>   -18.7812     0.0000    32.0000 </r>
       <r>   -18.5981     0.0000   100.0000 </r>
       <r>   -18.4151     0.0000   152.0000 </r>
       <r>   -18.2320     0.0000   172.0000 </r>
       <r>   -18.0489     0.0000   180.0000 </r>
       <r>   -17.8658     0.0000   180.0000 </r>
       <r>   -17.6827     0.0000   180.0000 </r>
       <r>   -17.4997     0.0000   180.0000 </r>
       <r>   -17.3166     0.0000   180.0000 </r>
       <r>   -17.1335     0.0000   180.0000 </r>
       <r>   -16.9504     0.0000   180.0000 </r>
       <r>   -16.7673     0.0000   180.0000 </r>
       <r>   -16.5843     0.0000   180.0000 </r>
       <r>   -16.4012     0.0000   180.0000 </r>
       <r>   -16.2181     0.0000   180.0000 </r>
       <r>   -16.0350     0.0000   180.0000 </r>
       <r>   -15.8519     0.0000   180.0000 </r>
       <r>   -15.6689     0.0000   180.0000 </r>
       <r>   -15.4858     0.0000   180.0000 </r>
       <r>   -15.3027     0.0000   180.0000 </r>
       <r>   -15.1196     0.0000   180.0000 </r>
       <r>   -14.9366     0.0000   180.0000 </r>
       <r>   -14.7535     0.0000   180.0000 </r>
       <r>   -14.5704     0.0000   180.0000 </r>
       <r>   -14.3873     0.0000   180.0000 </r>
       <r>   -14.2042     0.0000   180.0000 </r>
       <r>   -14.0212     0.0000   180.0000 </r>
       <r>   -13.8381     0.0000   180.0000 </r>
       <r>   -13.6550     0.0000   180.0000 </r>
       <r>   -13.4719     0.0000   182.0000 </r>
       <r>   -13.2888     0.0000   184.0000 </r>
       <r>   -13.1058     0.0000   184.0000 </r>
       <r>   -12.9227     0.0000   184.0000 </r>
       <r>   -12.7396   135.1267   191.1430 </r>
       <r>   -12.5565     0.0000   206.0000 </r>
       <r>   -12.3734     0.0000   208.0000 </r>
       <r>   -12.1904     0.0000   208.0000 </r>
       <r>   -12.0073     0.0000   208.0000 </r>
       <r>   -11.8242     0.0000   212.0000 </r>
       <r>   -11.6411     0.0000   212.0000 </r>
       <r>   -11.4580     0.0000   212.0000 </r>
       <r>   -11.2750     0.0000   212.0000 </r>
       <r>   -11.0919     0.0000   212.0000 </r>
       <r>   -10.9088     0.0000   212.0000 </r>
       <r>   -10.7257     0.0000   212.0000 </r>
       <r>   -10.5426     0.0000   212.0000 </r>
       <r>   -10.3596     0.0000   212.0000 </r>
       <r>   -10.1765     0.0000   212.0000 </r>
       <r>    -9.9934     0.0000   212.0000 </r>
       <r>    -9.8103     0.0000   212.0000 </r>
       <r>    -9.6272     0.0000   212.0000 </r>
       <r>    -9.4442     0.0000   212.0000 </r>
       <r>    -9.2611     3.7214   212.0931 </r>
       <r>    -9.0780    14.3525   213.7346 </r>
       <r>    -8.8949     0.2320   216.0002 </r>
       <r>    -8.7118    13.9300   218.6577 </r>
       <r>    -8.5288    14.1713   221.0097 </r>
       <r>    -8.3457    24.8982   225.6386 </r>
       <r>    -8.1626    23.7382   228.8255 </r>
       <r>    -7.9795    23.7388   233.4907 </r>
       <r>    -7.7964    16.0760   237.1357 </r>
       <r>    -7.6134    21.5278   240.2685 </r>
       <r>    -7.4303     9.5113   243.6034 </r>
       <r>    -7.2472     0.0000   244.0000 </r>
       <r>    -7.0641     0.0000   244.0000 </r>
       <r>    -6.8810     0.0000   244.0000 </r>
       <r>    -6.6980     0.0000   244.0000 </r>
       <r>    -6.5149     0.0000   244.0000 </r>
       <r>    -6.3318     1.4630   244.0176 </r>
       <r>    -6.1487    19.2198   245.8802 </r>
       <r>    -5.9657    16.6395   250.3008 </r>
       <r>    -5.7826    24.4817   253.7744 </r>
       <r>    -5.5995    23.8613   258.5789 </r>
       <r>    -5.4164    22.7968   262.5007 </r>
       <r>    -5.2333    16.0426   266.0381 </r>
       <r>    -5.0503     4.6749   267.8632 </r>
       <r>    -4.8672     7.3481   268.7743 </r>
       <r>    -4.6841     8.3349   270.1885 </r>
       <r>    -4.5010     9.6954   271.9472 </r>
       <r>    -4.3179     6.2417   273.2859 </r>
       <r>    -4.1349     6.7238   274.5649 </r>
       <r>    -3.9518     3.5895   275.5143 </r>
       <r>    -3.7687     1.1001   275.9050 </r>
       <r>    -3.5856     0.0307   275.9997 </r>
       <r>    -3.4025     0.0000   276.0000 </r>
       <r>    -3.2195     0.0000   276.0000 </r>
       <r>    -3.0364     0.0000   276.0000 </r>
       <r>    -2.8533     0.0000   276.0000 </r>
       <r>    -2.6702     0.0000   276.0000 </r>
       <r>    -2.4871     0.0000   276.0000 </r>
       <r>    -2.3041     0.0000   276.0000 </r>
       <r>    -2.1210     0.0000   276.0000 </r>
       <r>    -1.9379     0.0000   276.0000 </r>
       <r>    -1.7548     0.0000   276.0000 </r>
       <r>    -1.5717     0.0000   276.0000 </r>
       <r>    -1.3887     0.2653   276.0037 </r>
       <r>    -1.2056     6.8362   276.5227 </r>
       <r>    -1.0225    10.0367   278.2168 </r>
       <r>    -0.8394    13.2334   280.5274 </r>
       <r>    -0.6563     8.0564   282.4511 </r>
       <r>    -0.4733     5.1849   283.5526 </r>
       <r>    -0.2902    22.4438   286.5491 </r>
       <r>    -0.1071    32.7140   291.3237 </r>
       <r>     0.0760    33.2729   298.3517 </r>
       <r>     0.2591    27.3082   304.4295 </r>
       <r>     0.4421    39.6440   311.0290 </r>
       <r>     0.6252    37.9268   318.9200 </r>
       <r>     0.8083    40.0698   325.0801 </r>
       <r>     0.9914    41.6424   331.9749 </r>
       <r>     1.1745    45.3519   340.3651 </r>
       <r>     1.3575    42.4997   348.6949 </r>
       <r>     1.5406    47.6174   357.8038 </r>
       <r>     1.7237    42.1195   366.9901 </r>
       <r>     1.9068    42.5059   376.0663 </r>
       <r>     2.0898    41.0540   383.5413 </r>
       <r>     2.2729    40.5444   391.5608 </r>
       <r>     2.4560    59.1549   400.2978 </r>
       <r>     2.6391    83.1065   411.1367 </r>
       <r>     2.8222    61.6345   423.2844 </r>
       <r>     3.0052    81.1699   435.0108 </r>
       <r>     3.1883    36.7855   446.3482 </r>
       <r>     3.3714    34.4544   452.7702 </r>
       <r>     3.5545    36.3297   460.2112 </r>
       <r>     3.7376    20.6123   463.9854 </r>
       <r>     3.9206     9.9812   466.3605 </r>
       <r>     4.1037     4.3867   467.6759 </r>
       <r>     4.2868     0.0038   468.0000 </r>
       <r>     4.4699     0.0000   468.0000 </r>
       <r>     4.6530     0.0000   468.0000 </r>
       <r>     4.8360     0.0000   468.0000 </r>
       <r>     5.0191     0.0000   468.0000 </r>
       <r>     5.2022     1.1226   468.0572 </r>
       <r>     5.3853     4.9827   468.6053 </r>
       <r>     5.5684     8.9874   469.8840 </r>
       <r>     5.7514     7.7192   471.5764 </r>
       <r>     5.9345    15.2940   475.7504 </r>
       <r>     6.1176    12.0600   478.1789 </r>
       <r>     6.3007    11.7830   480.3058 </r>
       <r>     6.4838    13.5208   482.6224 </r>
       <r>     6.6668    15.2373   485.2552 </r>
       <r>     6.8499    16.9946   488.2022 </r>
       <r>     7.0330    20.3165   491.5671 </r>
       <r>     7.2161    29.5905   495.9652 </r>
       <r>     7.3992    42.4653   502.3906 </r>
       <r>     7.5822    24.0274   509.2928 </r>
       <r>     7.7653    43.6483   514.6720 </r>
       <r>     7.9484    48.0648   523.6841 </r>
       <r>     8.1315    23.8668   530.3957 </r>
       <r>     8.3146    18.4143   534.1451 </r>
       <r>     8.4976    20.5957   537.6117 </r>
       <r>     8.6807    26.6227   541.9932 </r>
       <r>     8.8638    48.5708   548.1502 </r>
       <r>     9.0469    26.6835   555.4294 </r>
       <r>     9.2300     9.6709   558.4035 </r>
       <r>     9.4130     4.1285   559.6790 </r>
       <r>     9.5961     0.2434   559.9946 </r>
       <r>     9.7792     0.0000   560.0000 </r>
       <r>     9.9623     0.0000   560.0000 </r>
       <r>    10.1454     0.0000   560.0000 </r>
       <r>    10.3284     0.0000   560.0000 </r>
       <r>    10.5115     0.0000   560.0000 </r>
       <r>    10.6946     0.0000   560.0000 </r>
       <r>    10.8777     0.0000   560.0000 </r>
       <r>    11.0607     0.0000   560.0000 </r>
       <r>    11.2438     0.0000   560.0000 </r>
       <r>    11.4269     0.0000   560.0000 </r>
       <r>    11.6100     0.0000   560.0000 </r>
       <r>    11.7931     0.0000   560.0000 </r>
       <r>    11.9761     0.0000   560.0000 </r>
       <r>    12.1592     0.0000   560.0000 </r>
      </set>
     </set>
    </array>
   </total>
  </dos>
 </calculation>
 <structure name="finalpos" >
  <crystal>
   <varray name="basis" >
    <v>      11.17850000       0.00000000       0.00000000 </v>
    <v>       0.00000000       9.57460000       0.00000000 </v>
    <v>       0.00000000       0.00000000      11.18240000 </v>
   </varray>
   <i name="volume">   1196.84853820 </i>
   <varray name="rec_basis" >
    <v>       0.08945744       0.00000000       0.00000000 </v>
    <v>       0.00000000       0.10444301       0.00000000 </v>
    <v>       0.00000000       0.00000000       0.08942624 </v>
   </varray>
  </crystal>
  <varray name="positions" >
   <v>       0.37539000       0.00017000       0.43687000 </v>
   <v>       0.12461000       0.99984000       0.18687000 </v>
   <v>       0.37461000       0.00017000       0.18687000 </v>
   <v>       0.62539000       0.99984000       0.43687000 </v>
   <v>       0.62461000       0.99984000       0.18687000 </v>
   <v>       0.87461000       0.00017000       0.18687000 </v>
   <v>       0.37539000       0.00017000       0.93687000 </v>
   <v>       0.37461000       0.00017000       0.68687000 </v>
   <v>       0.62539000       0.99984000       0.93687000 </v>
   <v>       0.62461000       0.99984000       0.68687000 </v>
   <v>       0.87539000       0.00017000       0.43687000 </v>
   <v>       0.12461000       0.99984000       0.68687000 </v>
   <v>       0.87539000       0.00017000       0.93687000 </v>
   <v>       0.00013000       0.29519000       0.06281000 </v>
   <v>       0.25013000       0.70481000       0.06281000 </v>
   <v>       0.24987000       0.29519000       0.31282000 </v>
   <v>       0.49987000       0.70481000       0.31282000 </v>
   <v>       0.50013000       0.29519000       0.06281000 </v>
   <v>       0.75013000       0.70481000       0.06281000 </v>
   <v>       0.74987000       0.29519000       0.31282000 </v>
   <v>       0.99987000       0.70481000       0.31282000 </v>
   <v>       0.00013000       0.29519000       0.56281000 </v>
   <v>       0.25013000       0.70481000       0.56281000 </v>
   <v>       0.24987000       0.29519000       0.81282000 </v>
   <v>       0.49987000       0.70481000       0.81282000 </v>
   <v>       0.50013000       0.29519000       0.56281000 </v>
   <v>       0.75013000       0.70481000       0.56281000 </v>
   <v>       0.74987000       0.29519000       0.81282000 </v>
   <v>       0.99987000       0.70481000       0.81282000 </v>
   <v>       0.25005000       0.32677000       0.06286000 </v>
   <v>       0.00005000       0.67323000       0.06286000 </v>
   <v>       0.49995000       0.32677000       0.31286000 </v>
   <v>       0.24995000       0.67323000       0.31286000 </v>
   <v>       0.75005000       0.32677000       0.06286000 </v>
   <v>       0.50005000       0.67323000       0.06286000 </v>
   <v>       0.99995000       0.32677000       0.31286000 </v>
   <v>       0.74995000       0.67323000       0.31286000 </v>
   <v>       0.25005000       0.32677000       0.56286000 </v>
   <v>       0.00005000       0.67323000       0.56286000 </v>
   <v>       0.49995000       0.32677000       0.81286000 </v>
   <v>       0.24995000       0.67323000       0.81286000 </v>
   <v>       0.75005000       0.32677000       0.56286000 </v>
   <v>       0.50005000       0.67323000       0.56286000 </v>
   <v>       0.99995000       0.32677000       0.81286000 </v>
   <v>       0.74995000       0.67323000       0.81286000 </v>
   <v>       0.49987000       0.07798000       0.06246000 </v>
   <v>       0.24987000       0.92202000       0.06246000 </v>
   <v>       0.25013000       0.07798000       0.31246000 </v>
   <v>       0.00013000       0.92202000       0.31246000 </v>
   <v>       0.99987000       0.07798000       0.06246000 </v>
   <v>       0.74987000       0.92202000       0.06246000 </v>
   <v>       0.75013000       0.07798000       0.31246000 </v>
   <v>       0.50013000       0.92202000       0.31246000 </v>
   <v>       0.49987000       0.07798000       0.56246000 </v>
   <v>       0.24987000       0.92202000       0.56246000 </v>
   <v>       0.25013000       0.07798000       0.81246000 </v>
   <v>       0.00013000       0.92202000       0.81246000 </v>
   <v>       0.99987000       0.07798000       0.56246000 </v>
   <v>       0.74987000       0.92202000       0.56246000 </v>
   <v>       0.75013000       0.07798000       0.81246000 </v>
   <v>       0.50013000       0.92202000       0.81246000 </v>
  </varray>
 </structure>
</modeling>
