<?xml version="1.0" encoding="ISO-8859-1"?>
<modeling>
 <generator>
  <i name="program" type="string">vasp </i>
  <i name="version" type="string">5.4.4.18Apr17-6-g9f103f2a35  </i>
  <i name="subversion" type="string">(build Jul 31 2017 11:33:29) complex            parallel </i>
  <i name="platform" type="string">LinuxIFC </i>
  <i name="date" type="string">2021 09 29 </i>
  <i name="time" type="string">14:18:18 </i>
 </generator>
 <incar>
  <i type="string" name="SYSTEM"> La2O2S</i>
  <i type="string" name="PREC">normal</i>
  <i type="int" name="NELMIN">     4</i>
  <i type="int" name="IBRION">     2</i>
  <i type="int" name="NFREE">    10</i>
  <i name="EDIFF">      0.00000100</i>
  <i name="EDIFFG">     -0.01000000</i>
  <i type="int" name="NSW">     1</i>
  <i type="int" name="ISIF">     2</i>
  <i name="ENCUT">    600.00000000</i>
  <i name="ENAUG">    900.00000000</i>
  <i type="int" name="ISMEAR">    -5</i>
  <i type="logical" name="LWAVE"> F  </i>
  <i type="logical" name="LCHARG"> F  </i>
  <v type="int" name="KPOINT_BSE">    -1     0     0     0</v>
 </incar>
 <structure name="primitive_cell" >
  <crystal>
   <varray name="basis" >
    <v>      11.17850000       0.00000000       0.00000000 </v>
    <v>       0.00000000       9.57460000       0.00000000 </v>
    <v>       0.00000000       0.00000000      11.18240000 </v>
   </varray>
   <i name="volume">   1196.84853820 </i>
   <varray name="rec_basis" >
    <v>       0.08945744       0.00000000       0.00000000 </v>
    <v>       0.00000000       0.10444301       0.00000000 </v>
    <v>       0.00000000       0.00000000       0.08942624 </v>
   </varray>
  </crystal>
  <varray name="positions" >
   <v>       0.12461000      -0.00016000       0.18687000 </v>
   <v>      -0.00013000       0.07798000       0.06246000 </v>
   <v>       0.24987000      -0.07798000       0.06246000 </v>
   <v>       0.00013000      -0.07798000       0.31246000 </v>
   <v>       0.25013000       0.07798000       0.31246000 </v>
   <v>       0.37461000       0.00017000       0.18687000 </v>
   <v>       0.12539000      -0.00016000      -0.06313000 </v>
   <v>       0.00013000       0.29519000       0.06281000 </v>
   <v>       0.25013000      -0.29519000       0.06281000 </v>
   <v>      -0.00013000      -0.29519000       0.31282000 </v>
   <v>       0.24987000       0.29519000       0.31282000 </v>
   <v>       0.00005000      -0.32677000       0.06286000 </v>
   <v>       0.25005000       0.32677000       0.06286000 </v>
   <v>      -0.00005000       0.32677000       0.31286000 </v>
   <v>       0.24995000      -0.32677000       0.31286000 </v>
   <v>      -0.12461000       0.00017000       0.43687000 </v>
   <v>      -0.12461000       0.00017000      -0.06313000 </v>
   <v>       0.37539000       0.00017000      -0.06313000 </v>
   <v>       0.37539000       0.00017000       0.43687000 </v>
   <v>       0.00013000      -0.07798000      -0.18754000 </v>
   <v>      -0.25013000      -0.07798000       0.06246000 </v>
   <v>      -0.24987000       0.07798000       0.31246000 </v>
   <v>       0.25013000       0.07798000      -0.18754000 </v>
   <v>       0.49987000       0.07798000       0.06246000 </v>
   <v>      -0.00013000       0.07798000      -0.43754000 </v>
   <v>      -0.49987000      -0.07798000       0.31246000 </v>
   <v>       0.24987000      -0.07798000      -0.43754000 </v>
   <v>      -0.00013000      -0.29519000      -0.18718000 </v>
   <v>      -0.24987000      -0.29519000       0.06281000 </v>
   <v>       0.24987000       0.29519000      -0.18718000 </v>
   <v>      -0.25013000       0.29519000       0.31282000 </v>
   <v>      -0.49987000       0.29519000       0.06281000 </v>
   <v>       0.49987000      -0.29519000       0.31282000 </v>
   <v>       0.00013000       0.29519000      -0.43719000 </v>
   <v>       0.25013000      -0.29519000      -0.43719000 </v>
   <v>      -0.00005000       0.32677000      -0.18714000 </v>
   <v>       0.24995000      -0.32677000      -0.18714000 </v>
   <v>      -0.24995000       0.32677000       0.06286000 </v>
   <v>      -0.25005000      -0.32677000       0.31286000 </v>
   <v>      -0.49995000      -0.32677000       0.06286000 </v>
   <v>       0.49995000       0.32677000       0.31286000 </v>
   <v>       0.00005000      -0.32677000      -0.43714000 </v>
   <v>       0.25005000       0.32677000      -0.43714000 </v>
   <v>      -0.37539000      -0.00016000       0.18687000 </v>
   <v>       0.12461000      -0.00016000      -0.31313000 </v>
   <v>      -0.24987000       0.07798000      -0.18754000 </v>
   <v>      -0.49987000      -0.07798000      -0.18754000 </v>
   <v>      -0.25013000      -0.07798000      -0.43754000 </v>
   <v>       0.49987000       0.07798000      -0.43754000 </v>
   <v>      -0.25013000       0.29519000      -0.18718000 </v>
   <v>       0.49987000      -0.29519000      -0.18718000 </v>
   <v>      -0.24987000      -0.29519000      -0.43719000 </v>
   <v>      -0.49987000       0.29519000      -0.43719000 </v>
   <v>      -0.25005000      -0.32677000      -0.18714000 </v>
   <v>       0.49995000       0.32677000      -0.18714000 </v>
   <v>      -0.24995000       0.32677000      -0.43714000 </v>
   <v>      -0.49995000      -0.32677000      -0.43714000 </v>
   <v>      -0.37539000      -0.00016000      -0.31313000 </v>
  </varray>
 </structure>
 <varray name="primitive_index" >
  <v type="int" >        1 </v>
  <v type="int" >       47 </v>
  <v type="int" >       44 </v>
  <v type="int" >       46 </v>
  <v type="int" >       45 </v>
  <v type="int" >        2 </v>
  <v type="int" >        3 </v>
  <v type="int" >       11 </v>
  <v type="int" >       12 </v>
  <v type="int" >       18 </v>
  <v type="int" >       13 </v>
  <v type="int" >       28 </v>
  <v type="int" >       27 </v>
  <v type="int" >       33 </v>
  <v type="int" >       30 </v>
  <v type="int" >        6 </v>
  <v type="int" >        9 </v>
  <v type="int" >        4 </v>
  <v type="int" >        5 </v>
  <v type="int" >       54 </v>
  <v type="int" >       48 </v>
  <v type="int" >       49 </v>
  <v type="int" >       53 </v>
  <v type="int" >       43 </v>
  <v type="int" >       55 </v>
  <v type="int" >       50 </v>
  <v type="int" >       52 </v>
  <v type="int" >       26 </v>
  <v type="int" >       16 </v>
  <v type="int" >       21 </v>
  <v type="int" >       17 </v>
  <v type="int" >       15 </v>
  <v type="int" >       14 </v>
  <v type="int" >       19 </v>
  <v type="int" >       20 </v>
  <v type="int" >       41 </v>
  <v type="int" >       38 </v>
  <v type="int" >       31 </v>
  <v type="int" >       34 </v>
  <v type="int" >       32 </v>
  <v type="int" >       29 </v>
  <v type="int" >       36 </v>
  <v type="int" >       35 </v>
  <v type="int" >        7 </v>
  <v type="int" >        8 </v>
  <v type="int" >       57 </v>
  <v type="int" >       58 </v>
  <v type="int" >       56 </v>
  <v type="int" >       51 </v>
  <v type="int" >       25 </v>
  <v type="int" >       22 </v>
  <v type="int" >       24 </v>
  <v type="int" >       23 </v>
  <v type="int" >       42 </v>
  <v type="int" >       37 </v>
  <v type="int" >       39 </v>
  <v type="int" >       40 </v>
  <v type="int" >       10 </v>
 </varray>
 <kpoints>
  <generation param="Gamma">
   <v type="int" name="divisions">       2        2        2 </v>
   <v name="usershift">      0.00000000       0.00000000       0.00000000 </v>
   <v name="genvec1">      0.50000000       0.00000000       0.00000000 </v>
   <v name="genvec2">      0.00000000       0.50000000       0.00000000 </v>
   <v name="genvec3">      0.00000000       0.00000000       0.50000000 </v>
   <v name="shift">      0.00000000       0.00000000       0.00000000 </v>
  </generation>
  <varray name="kpointlist" >
   <v>       0.00000000       0.00000000       0.00000000 </v>
   <v>       0.50000000       0.00000000       0.00000000 </v>
   <v>       0.00000000       0.50000000       0.00000000 </v>
   <v>       0.50000000       0.50000000       0.00000000 </v>
   <v>       0.00000000       0.00000000       0.50000000 </v>
   <v>       0.50000000       0.00000000       0.50000000 </v>
   <v>       0.00000000       0.50000000       0.50000000 </v>
   <v>       0.50000000       0.50000000       0.50000000 </v>
  </varray>
  <varray name="weights" >
   <v>       0.12500000 </v>
   <v>       0.12500000 </v>
   <v>       0.12500000 </v>
   <v>       0.12500000 </v>
   <v>       0.12500000 </v>
   <v>       0.12500000 </v>
   <v>       0.12500000 </v>
   <v>       0.12500000 </v>
  </varray>
  <varray name="tetrahedronlist"  type="int" >
   <v type="int" >        2        1        2        4        5 </v>
   <v type="int" >        2        1        3        4        5 </v>
   <v type="int" >        2        3        4        5        7 </v>
   <v type="int" >        2        2        4        5        6 </v>
   <v type="int" >        2        4        5        6        8 </v>
   <v type="int" >        2        4        5        7        8 </v>
   <v type="int" >        2        1        2        3        6 </v>
   <v type="int" >        2        2        3        4        6 </v>
   <v type="int" >        2        3        4        6        8 </v>
   <v type="int" >        2        1        3        5        6 </v>
   <v type="int" >        2        3        5        6        7 </v>
   <v type="int" >        2        3        6        7        8 </v>
   <v type="int" >        2        2        3        4        7 </v>
   <v type="int" >        2        1        2        3        7 </v>
   <v type="int" >        2        1        2        5        7 </v>
   <v type="int" >        2        2        4        7        8 </v>
   <v type="int" >        2        2        6        7        8 </v>
   <v type="int" >        2        2        5        6        7 </v>
   <v type="int" >        2        1        3        4        8 </v>
   <v type="int" >        2        1        2        4        8 </v>
   <v type="int" >        2        1        2        6        8 </v>
   <v type="int" >        2        1        3        7        8 </v>
   <v type="int" >        2        1        5        7        8 </v>
   <v type="int" >        2        1        5        6        8 </v>
  </varray>
  <i name="volumeweight">      0.02083333 </i>
 </kpoints>
 <parameters>
  <separator name="general" >
   <i type="string" name="SYSTEM">La2O2S</i>
   <i type="logical" name="LCOMPAT"> F  </i>
  </separator>
  <separator name="electronic" >
   <i type="string" name="PREC">normal</i>
   <i name="ENMAX">    600.00000000</i>
   <i name="ENAUG">    900.00000000</i>
   <i name="EDIFF">      0.00000100</i>
   <i type="int" name="IALGO">    38</i>
   <i type="int" name="IWAVPR">    11</i>
   <i type="int" name="NBANDS">   280</i>
   <i name="NELECT">    456.00000000</i>
   <i type="int" name="TURBO">     0</i>
   <i type="int" name="IRESTART">     0</i>
   <i type="int" name="NREBOOT">     0</i>
   <i type="int" name="NMIN">     0</i>
   <i name="EREF">      0.00000000</i>
   <separator name="electronic smearing" >
    <i type="int" name="ISMEAR">    -5</i>
    <i name="SIGMA">      0.20000000</i>
    <i name="KSPACING">      0.50000000</i>
    <i type="logical" name="KGAMMA"> T  </i>
   </separator>
   <separator name="electronic projectors" >
    <i type="logical" name="LREAL"> F  </i>
    <v name="ROPT">      0.00000000      0.00000000      0.00000000      0.00000000      0.00000000</v>
    <i type="int" name="LMAXPAW">  -100</i>
    <i type="int" name="LMAXMIX">     2</i>
    <i type="logical" name="NLSPLINE"> F  </i>
   </separator>
   <separator name="electronic startup" >
    <i type="int" name="ISTART">     0</i>
    <i type="int" name="ICHARG">     2</i>
    <i type="int" name="INIWAV">     1</i>
   </separator>
   <separator name="electronic spin" >
    <i type="int" name="ISPIN">     1</i>
    <i type="logical" name="LNONCOLLINEAR"> F  </i>
    <v name="MAGMOM">      1.00000000      1.00000000      1.00000000      1.00000000      1.00000000      1.00000000      1.00000000      1.00000000      1.00000000      1.00000000      1.00000000      1.00000000      1.00000000      1.00000000      1.00000000      1.00000000      1.00000000      1.00000000      1.00000000      1.00000000
      1.00000000      1.00000000      1.00000000      1.00000000      1.00000000      1.00000000      1.00000000      1.00000000      1.00000000      1.00000000      1.00000000      1.00000000      1.00000000      1.00000000      1.00000000      1.00000000      1.00000000      1.00000000      1.00000000      1.00000000
      1.00000000      1.00000000      1.00000000      1.00000000      1.00000000      1.00000000      1.00000000      1.00000000      1.00000000      1.00000000      1.00000000      1.00000000      1.00000000      1.00000000      1.00000000      1.00000000      1.00000000      1.00000000</v>
    <i name="NUPDOWN">     -1.00000000</i>
    <i type="logical" name="LSORBIT"> F  </i>
    <v name="SAXIS">      0.00000000      0.00000000      1.00000000</v>
    <i type="logical" name="LSPIRAL"> F  </i>
    <v name="QSPIRAL">      0.00000000      0.00000000      0.00000000</v>
    <i type="logical" name="LZEROZ"> F  </i>
   </separator>
   <separator name="electronic exchange-correlation" >
    <i type="logical" name="LASPH"> F  </i>
    <i type="logical" name="LMETAGGA"> F  </i>
   </separator>
   <separator name="electronic convergence" >
    <i type="int" name="NELM">    60</i>
    <i type="int" name="NELMDL">    -5</i>
    <i type="int" name="NELMIN">     4</i>
    <i name="ENINI">    600.00000000</i>
    <separator name="electronic convergence detail" >
     <i type="logical" name="LDIAG"> T  </i>
     <i type="logical" name="LSUBROT"> F  </i>
     <i name="WEIMIN">      0.00100000</i>
     <i name="EBREAK">      0.00000000</i>
     <i name="DEPER">      0.30000000</i>
     <i type="int" name="NRMM">     4</i>
     <i name="TIME">      0.40000000</i>
    </separator>
   </separator>
   <separator name="electronic mixer" >
    <i name="AMIX">      0.40000000</i>
    <i name="BMIX">      1.00000000</i>
    <i name="AMIN">      0.10000000</i>
    <i name="AMIX_MAG">      1.60000000</i>
    <i name="BMIX_MAG">      1.00000000</i>
    <separator name="electronic mixer details" >
     <i type="int" name="IMIX">     4</i>
     <i type="logical" name="MIXFIRST"> F  </i>
     <i type="int" name="MAXMIX">   -45</i>
     <i name="WC">    100.00000000</i>
     <i type="int" name="INIMIX">     1</i>
     <i type="int" name="MIXPRE">     1</i>
     <i type="int" name="MREMOVE">     5</i>
    </separator>
   </separator>
   <separator name="electronic dipolcorrection" >
    <i type="logical" name="LDIPOL"> F  </i>
    <i type="logical" name="LMONO"> F  </i>
    <i type="int" name="IDIPOL">     0</i>
    <i name="EPSILON">      1.00000000</i>
    <v name="DIPOL">   -100.00000000   -100.00000000   -100.00000000</v>
    <i name="EFIELD">      0.00000000</i>
   </separator>
  </separator>
  <separator name="grids" >
   <i type="int" name="NGX">    70</i>
   <i type="int" name="NGY">    60</i>
   <i type="int" name="NGZ">    70</i>
   <i type="int" name="NGXF">   140</i>
   <i type="int" name="NGYF">   120</i>
   <i type="int" name="NGZF">   140</i>
   <i type="logical" name="ADDGRID"> F  </i>
  </separator>
  <separator name="ionic" >
   <i type="int" name="NSW">     1</i>
   <i type="int" name="IBRION">     2</i>
   <i type="int" name="MDALGO">     0</i>
   <i type="int" name="ISIF">     2</i>
   <i name="PSTRESS">      0.00000000</i>
   <i name="EDIFFG">     -0.01000000</i>
   <i type="int" name="NFREE">    10</i>
   <i name="POTIM">      0.50000000</i>
   <i name="SMASS">     -3.00000000</i>
   <i name="SCALEE">      1.00000000</i>
  </separator>
  <separator name="ionic md" >
   <i name="TEBEG">      0.00010000</i>
   <i name="TEEND">      0.00010000</i>
   <i type="int" name="NBLOCK">     1</i>
   <i type="int" name="KBLOCK">     1</i>
   <i type="int" name="NPACO">   256</i>
   <i name="APACO">     16.00000000</i>
  </separator>
  <separator name="symmetry" >
   <i type="int" name="ISYM">     2</i>
   <i name="SYMPREC">      0.00001000</i>
  </separator>
  <separator name="dos" >
   <i type="int" name="LORBIT">     0</i>
   <v name="RWIGS">     -1.00000000     -1.00000000     -1.00000000     -1.00000000     -1.00000000</v>
   <i type="int" name="NEDOS">   301</i>
   <i name="EMIN">     10.00000000</i>
   <i name="EMAX">    -10.00000000</i>
   <i name="EFERMI">      0.00000000</i>
  </separator>
  <separator name="writing" >
   <i type="int" name="NWRITE">     2</i>
   <i type="logical" name="LWAVE"> F  </i>
   <i type="logical" name="LDOWNSAMPLE"> F  </i>
   <i type="logical" name="LCHARG"> F  </i>
   <i type="logical" name="LPARD"> F  </i>
   <i type="logical" name="LVTOT"> F  </i>
   <i type="logical" name="LVHAR"> F  </i>
   <i type="logical" name="LELF"> F  </i>
   <i type="logical" name="LOPTICS"> F  </i>
   <v name="STM">      0.00000000      0.00000000      0.00000000      0.00000000      0.00000000      0.00000000      0.00000000</v>
  </separator>
  <separator name="performance" >
   <i type="int" name="NPAR">    28</i>
   <i type="int" name="NSIM">     4</i>
   <i type="int" name="NBLK">    -1</i>
   <i type="logical" name="LPLANE"> T  </i>
   <i type="logical" name="LSCALAPACK"> T  </i>
   <i type="logical" name="LSCAAWARE"> F  </i>
   <i type="logical" name="LSCALU"> F  </i>
   <i type="logical" name="LASYNC"> F  </i>
   <i type="logical" name="LORBITALREAL"> F  </i>
  </separator>
  <separator name="miscellaneous" >
   <i type="int" name="IDIOT">     3</i>
   <i type="int" name="ISPECIAL">     0</i>
   <i type="logical" name="LMUSIC"> F  </i>
   <v name="POMASS">      7.01000000     24.30500000    208.98000000     32.06600000     16.00000000</v>
   <v name="DARWINR">      0.00000000      0.00000000      0.00000000      0.00000000      0.00000000</v>
   <v name="DARWINV">      1.00000000      1.00000000      1.00000000      1.00000000      1.00000000</v>
   <i type="logical" name="LCORR"> T  </i>
  </separator>
  <i type="logical" name="GGA_COMPAT"> T  </i>
  <i type="logical" name="LBERRY"> F  </i>
  <i type="int" name="ICORELEVEL">     0</i>
  <i type="logical" name="LDAU"> F  </i>
  <i type="int" name="I_CONSTRAINED_M">     0</i>
  <separator name="electronic exchange-correlation" >
   <i type="string" name="GGA">--</i>
   <i type="int" name="VOSKOWN">     0</i>
   <i type="logical" name="LHFCALC"> F  </i>
   <i type="string" name="PRECFOCK"></i>
   <i type="logical" name="LSYMGRAD"> F  </i>
   <i type="logical" name="LHFONE"> F  </i>
   <i type="logical" name="LRHFCALC"> F  </i>
   <i type="logical" name="LTHOMAS"> F  </i>
   <i type="logical" name="LMODELHF"> F  </i>
   <i name="ENCUT4O">     -1.00000000</i>
   <i type="int" name="EXXOEP">     0</i>
   <i type="int" name="FOURORBIT">     0</i>
   <i name="AEXX">      0.00000000</i>
   <i name="HFALPHA">      0.00000000</i>
   <i name="MCALPHA">      0.00000000</i>
   <i name="ALDAX">      1.00000000</i>
   <i name="AGGAX">      1.00000000</i>
   <i name="ALDAC">      1.00000000</i>
   <i name="AGGAC">      1.00000000</i>
   <i type="int" name="NKREDX">     1</i>
   <i type="int" name="NKREDY">     1</i>
   <i type="int" name="NKREDZ">     1</i>
   <i type="logical" name="SHIFTRED"> F  </i>
   <i type="logical" name="ODDONLY"> F  </i>
   <i type="logical" name="EVENONLY"> F  </i>
   <i type="int" name="LMAXFOCK">     0</i>
   <i type="int" name="NMAXFOCKAE">     0</i>
   <i type="logical" name="LFOCKAEDFT"> F  </i>
   <i name="HFSCREEN">      0.00000000</i>
   <i name="HFSCREENC">      0.00000000</i>
   <i type="int" name="NBANDSGWLOW">     0</i>
  </separator>
  <separator name="vdW DFT" >
   <i type="logical" name="LUSE_VDW"> F  </i>
   <i name="Zab_VDW">     -0.84910000</i>
   <i name="PARAM1">      0.12340000</i>
   <i name="PARAM2">      1.00000000</i>
   <i name="PARAM3">      0.00000000</i>
  </separator>
  <separator name="model GW" >
   <i type="int" name="MODEL_GW">     0</i>
   <i name="MODEL_EPS0">     12.38119177</i>
   <i name="MODEL_ALPHA">      1.00000000</i>
  </separator>
  <separator name="linear response parameters" >
   <i type="logical" name="LEPSILON"> F  </i>
   <i type="logical" name="LRPA"> F  </i>
   <i type="logical" name="LNABLA"> F  </i>
   <i type="logical" name="LVEL"> F  </i>
   <i type="int" name="KINTER">     0</i>
   <i name="CSHIFT">      0.10000000</i>
   <i name="OMEGAMAX">     -1.00000000</i>
   <i name="DEG_THRESHOLD">      0.00200000</i>
   <i name="RTIME">     -0.10000000</i>
   <i name="WPLASMAI">      0.00000000</i>
   <v name="DFIELD">      0.00000000      0.00000000      0.00000000</v>
   <v name="WPLASMA">      0.00000000      0.00000000      0.00000000      0.00000000      0.00000000      0.00000000      0.00000000      0.00000000      0.00000000</v>
  </separator>
  <separator name="orbital magnetization" >
   <i type="logical" name="NUCIND"> F  </i>
   <v name="MAGPOS">      0.00000000      0.00000000      0.00000000</v>
   <i type="logical" name="LNICSALL"> T  </i>
   <i type="logical" name="ORBITALMAG"> F  </i>
   <i type="logical" name="LMAGBLOCH"> F  </i>
   <i type="logical" name="LCHIMAG"> F  </i>
   <i type="logical" name="LGAUGE"> T  </i>
   <i type="int" name="MAGATOM">     0</i>
   <v name="MAGDIPOL">      0.00000000      0.00000000      0.00000000</v>
   <v name="AVECCONST">      0.00000000      0.00000000      0.00000000</v>
  </separator>
  <separator name="response functions" >
   <i type="logical" name="LADDER"> F  </i>
   <i type="logical" name="LRPAFORCE"> F  </i>
   <i type="logical" name="LFXC"> F  </i>
   <i type="logical" name="LHARTREE"> T  </i>
   <i type="int" name="IBSE">     0</i>
   <v type="int" name="KPOINT">    -1     0     0     0</v>
   <i type="logical" name="LTCTE"> F  </i>
   <i type="logical" name="LTETE"> F  </i>
   <i type="logical" name="LTRIPLET"> F  </i>
   <i type="logical" name="LFXCEPS"> F  </i>
   <i type="logical" name="LFXHEG"> F  </i>
   <i type="int" name="NATURALO">     2</i>
   <i type="logical" name="L2ORDER"> F  </i>
   <i type="logical" name="LMP2LT"> F  </i>
   <i type="logical" name="LUSEW"> F  </i>
   <i name="ENCUTGW">     -2.00000000</i>
   <i name="ENCUTGWSOFT">     -2.00000000</i>
   <i name="ENCUTLF">     -1.00000000</i>
   <i type="int" name="LMAXMP2">    -1</i>
   <i name="SCISSOR">      0.00000000</i>
   <i type="int" name="NOMEGA">     0</i>
   <i type="int" name="NOMEGAR">     0</i>
   <i type="int" name="NBANDSGW">    -1</i>
   <i type="int" name="NBANDSO">    -1</i>
   <i type="int" name="NBANDSV">    -1</i>
   <i type="int" name="NELM">     1</i>
   <i type="int" name="NELMHF">     1</i>
   <i type="int" name="DIM">     3</i>
   <i type="int" name="ANTIRES">     0</i>
   <i name="OMEGAMAX">    -30.00000000</i>
   <i name="OMEGAMIN">    -30.00000000</i>
   <i name="OMEGATL">   -200.00000000</i>
   <i type="int" name="OMEGAGRID">   140</i>
   <i name="CSHIFT">     -0.10000000</i>
   <i type="logical" name="SELFENERGY"> F  </i>
   <i type="logical" name="LSPECTRAL"> F  </i>
   <i type="logical" name="LSPECTRALGW"> F  </i>
   <i type="logical" name="LSINGLES"> F  </i>
   <i type="logical" name="LFERMIGW"> F  </i>
   <i type="logical" name="ODDONLYGW"> F  </i>
   <i type="logical" name="EVENONLYGW"> F  </i>
   <i type="int" name="NKREDLFX">     1</i>
   <i type="int" name="NKREDLFY">     1</i>
   <i type="int" name="NKREDLFZ">     1</i>
   <i type="int" name="MAXMEM">  2800</i>
   <i type="int" name="TELESCOPE">     0</i>
   <i type="int" name="TAUPAR">     1</i>
   <i type="int" name="OMEGAPAR">    -1</i>
   <i name="LAMBDA">      1.00000000</i>
  </separator>
  <separator name="External order field" >
   <i name="OFIELD_KAPPA">      0.00000000</i>
   <v name="OFIELD_K">      0.00000000      0.00000000      0.00000000</v>
   <i name="OFIELD_Q6_NEAR">      0.00000000</i>
   <i name="OFIELD_Q6_FAR">      0.00000000</i>
   <i name="OFIELD_A">      0.00000000</i>
  </separator>
 </parameters>
 <atominfo>
  <atoms>      58 </atoms>
  <types>       5 </types>
  <array name="atoms" >
   <dimension dim="1">ion</dimension>
   <field type="string">element</field>
   <field type="int">atomtype</field>
   <set>
    <rc><c>Li</c><c>   1</c></rc>
    <rc><c>Li</c><c>   1</c></rc>
    <rc><c>Li</c><c>   1</c></rc>
    <rc><c>Li</c><c>   1</c></rc>
    <rc><c>Mg</c><c>   2</c></rc>
    <rc><c>Mg</c><c>   2</c></rc>
    <rc><c>Mg</c><c>   2</c></rc>
    <rc><c>Mg</c><c>   2</c></rc>
    <rc><c>Mg</c><c>   2</c></rc>
    <rc><c>Mg</c><c>   2</c></rc>
    <rc><c>Bi</c><c>   3</c></rc>
    <rc><c>Bi</c><c>   3</c></rc>
    <rc><c>Bi</c><c>   3</c></rc>
    <rc><c>Bi</c><c>   3</c></rc>
    <rc><c>Bi</c><c>   3</c></rc>
    <rc><c>Bi</c><c>   3</c></rc>
    <rc><c>Bi</c><c>   3</c></rc>
    <rc><c>Bi</c><c>   3</c></rc>
    <rc><c>Bi</c><c>   3</c></rc>
    <rc><c>Bi</c><c>   3</c></rc>
    <rc><c>Bi</c><c>   3</c></rc>
    <rc><c>Bi</c><c>   3</c></rc>
    <rc><c>Bi</c><c>   3</c></rc>
    <rc><c>Bi</c><c>   3</c></rc>
    <rc><c>Bi</c><c>   3</c></rc>
    <rc><c>Bi</c><c>   3</c></rc>
    <rc><c>S </c><c>   4</c></rc>
    <rc><c>S </c><c>   4</c></rc>
    <rc><c>S </c><c>   4</c></rc>
    <rc><c>S </c><c>   4</c></rc>
    <rc><c>S </c><c>   4</c></rc>
    <rc><c>S </c><c>   4</c></rc>
    <rc><c>S </c><c>   4</c></rc>
    <rc><c>S </c><c>   4</c></rc>
    <rc><c>S </c><c>   4</c></rc>
    <rc><c>S </c><c>   4</c></rc>
    <rc><c>S </c><c>   4</c></rc>
    <rc><c>S </c><c>   4</c></rc>
    <rc><c>S </c><c>   4</c></rc>
    <rc><c>S </c><c>   4</c></rc>
    <rc><c>S </c><c>   4</c></rc>
    <rc><c>S </c><c>   4</c></rc>
    <rc><c>O </c><c>   5</c></rc>
    <rc><c>O </c><c>   5</c></rc>
    <rc><c>O </c><c>   5</c></rc>
    <rc><c>O </c><c>   5</c></rc>
    <rc><c>O </c><c>   5</c></rc>
    <rc><c>O </c><c>   5</c></rc>
    <rc><c>O </c><c>   5</c></rc>
    <rc><c>O </c><c>   5</c></rc>
    <rc><c>O </c><c>   5</c></rc>
    <rc><c>O </c><c>   5</c></rc>
    <rc><c>O </c><c>   5</c></rc>
    <rc><c>O </c><c>   5</c></rc>
    <rc><c>O </c><c>   5</c></rc>
    <rc><c>O </c><c>   5</c></rc>
    <rc><c>O </c><c>   5</c></rc>
    <rc><c>O </c><c>   5</c></rc>
   </set>
  </array>
  <array name="atomtypes" >
   <dimension dim="1">type</dimension>
   <field type="int">atomspertype</field>
   <field type="string">element</field>
   <field>mass</field>
   <field>valence</field>
   <field type="string">pseudopotential</field>
   <set>
    <rc><c>   4</c><c>Li</c><c>      7.01000000</c><c>      3.00000000</c><c>  PAW_PBE Li_sv 10Sep2004               </c></rc>
    <rc><c>   6</c><c>Mg</c><c>     24.30500000</c><c>      2.00000000</c><c>  PAW_PBE Mg 13Apr2007                  </c></rc>
    <rc><c>  16</c><c>Bi</c><c>    208.98000000</c><c>     15.00000000</c><c>  PAW_PBE Bi_d 06Sep2000                </c></rc>
    <rc><c>  16</c><c>S </c><c>     32.06600000</c><c>      6.00000000</c><c>  PAW_PBE S 06Sep2000                   </c></rc>
    <rc><c>  16</c><c>O </c><c>     16.00000000</c><c>      6.00000000</c><c>  PAW_PBE O 08Apr2002                   </c></rc>
   </set>
  </array>
 </atominfo>
 <structure name="initialpos" >
  <crystal>
   <varray name="basis" >
    <v>      11.17850000       0.00000000       0.00000000 </v>
    <v>       0.00000000       9.57460000       0.00000000 </v>
    <v>       0.00000000       0.00000000      11.18240000 </v>
   </varray>
   <i name="volume">   1196.84853820 </i>
   <varray name="rec_basis" >
    <v>       0.08945744       0.00000000       0.00000000 </v>
    <v>       0.00000000       0.10444301       0.00000000 </v>
    <v>       0.00000000       0.00000000       0.08942624 </v>
   </varray>
  </crystal>
  <varray name="positions" >
   <v>       0.12461000       0.99984000       0.18687000 </v>
   <v>       0.37461000       0.00017000       0.18687000 </v>
   <v>       0.12539000       0.99984000       0.93687000 </v>
   <v>       0.37539000       0.00017000       0.93687000 </v>
   <v>       0.37539000       0.00017000       0.43687000 </v>
   <v>       0.87539000       0.00017000       0.43687000 </v>
   <v>       0.62461000       0.99984000       0.18687000 </v>
   <v>       0.12461000       0.99984000       0.68687000 </v>
   <v>       0.87539000       0.00017000       0.93687000 </v>
   <v>       0.62461000       0.99984000       0.68687000 </v>
   <v>       0.00013000       0.29519000       0.06281000 </v>
   <v>       0.25013000       0.70481000       0.06281000 </v>
   <v>       0.24987000       0.29519000       0.31282000 </v>
   <v>       0.49987000       0.70481000       0.31282000 </v>
   <v>       0.50013000       0.29519000       0.06281000 </v>
   <v>       0.75013000       0.70481000       0.06281000 </v>
   <v>       0.74987000       0.29519000       0.31282000 </v>
   <v>       0.99987000       0.70481000       0.31282000 </v>
   <v>       0.00013000       0.29519000       0.56281000 </v>
   <v>       0.25013000       0.70481000       0.56281000 </v>
   <v>       0.24987000       0.29519000       0.81282000 </v>
   <v>       0.49987000       0.70481000       0.81282000 </v>
   <v>       0.50013000       0.29519000       0.56281000 </v>
   <v>       0.75013000       0.70481000       0.56281000 </v>
   <v>       0.74987000       0.29519000       0.81282000 </v>
   <v>       0.99987000       0.70481000       0.81282000 </v>
   <v>       0.25005000       0.32677000       0.06286000 </v>
   <v>       0.00005000       0.67323000       0.06286000 </v>
   <v>       0.49995000       0.32677000       0.31286000 </v>
   <v>       0.24995000       0.67323000       0.31286000 </v>
   <v>       0.75005000       0.32677000       0.06286000 </v>
   <v>       0.50005000       0.67323000       0.06286000 </v>
   <v>       0.99995000       0.32677000       0.31286000 </v>
   <v>       0.74995000       0.67323000       0.31286000 </v>
   <v>       0.25005000       0.32677000       0.56286000 </v>
   <v>       0.00005000       0.67323000       0.56286000 </v>
   <v>       0.49995000       0.32677000       0.81286000 </v>
   <v>       0.24995000       0.67323000       0.81286000 </v>
   <v>       0.75005000       0.32677000       0.56286000 </v>
   <v>       0.50005000       0.67323000       0.56286000 </v>
   <v>       0.99995000       0.32677000       0.81286000 </v>
   <v>       0.74995000       0.67323000       0.81286000 </v>
   <v>       0.49987000       0.07798000       0.06246000 </v>
   <v>       0.24987000       0.92202000       0.06246000 </v>
   <v>       0.25013000       0.07798000       0.31246000 </v>
   <v>       0.00013000       0.92202000       0.31246000 </v>
   <v>       0.99987000       0.07798000       0.06246000 </v>
   <v>       0.74987000       0.92202000       0.06246000 </v>
   <v>       0.75013000       0.07798000       0.31246000 </v>
   <v>       0.50013000       0.92202000       0.31246000 </v>
   <v>       0.49987000       0.07798000       0.56246000 </v>
   <v>       0.24987000       0.92202000       0.56246000 </v>
   <v>       0.25013000       0.07798000       0.81246000 </v>
   <v>       0.00013000       0.92202000       0.81246000 </v>
   <v>       0.99987000       0.07798000       0.56246000 </v>
   <v>       0.74987000       0.92202000       0.56246000 </v>
   <v>       0.75013000       0.07798000       0.81246000 </v>
   <v>       0.50013000       0.92202000       0.81246000 </v>
  </varray>
 </structure>
 <calculation>
  <scstep>
   <time name="dav">   60.90   61.09</time>
   <time name="total">   60.98   61.18</time>
   <energy>
    <i name="alphaZ">   1054.17224280 </i>
    <i name="ewald"> -30164.84802486 </i>
    <i name="hartreedc"> -12719.78436175 </i>
    <i name="XCdc">   1173.23298565 </i>
    <i name="pawpsdc">  36541.05238669 </i>
    <i name="pawaedc"> -35795.85877930 </i>
    <i name="eentropy">      0.00000000 </i>
    <i name="bandstr">   1908.32794154 </i>
    <i name="atom">  43643.51795008 </i>
    <i name="e_fr_energy">   5639.81234084 </i>
    <i name="e_wo_entrp">   5639.81234084 </i>
    <i name="e_0_energy">   5639.81234084 </i>
   </energy>
  </scstep>
  <scstep>
   <time name="dav">   61.89   62.09</time>
   <time name="total">   61.90   62.10</time>
   <energy>
    <i name="e_fr_energy">    730.82826243 </i>
    <i name="e_wo_entrp">    730.82826243 </i>
    <i name="e_0_energy">    730.82826243 </i>
   </energy>
  </scstep>
  <scstep>
   <time name="dav">   72.03   72.15</time>
   <time name="total">   72.04   72.16</time>
   <energy>
    <i name="e_fr_energy">   -248.91741084 </i>
    <i name="e_wo_entrp">   -248.91741084 </i>
    <i name="e_0_energy">   -248.91741084 </i>
   </energy>
  </scstep>
  <scstep>
   <time name="dav">   73.20   73.26</time>
   <time name="total">   73.20   73.26</time>
   <energy>
    <i name="e_fr_energy">   -333.17564401 </i>
    <i name="e_wo_entrp">   -333.17564401 </i>
    <i name="e_0_energy">   -333.17564401 </i>
   </energy>
  </scstep>
  <scstep>
   <time name="dav">   95.15   95.30</time>
   <time name="total">   95.87   96.02</time>
   <energy>
    <i name="e_fr_energy">   -339.14507771 </i>
    <i name="e_wo_entrp">   -339.14507771 </i>
    <i name="e_0_energy">   -339.14507771 </i>
   </energy>
  </scstep>
  <scstep>
   <time name="dav">   86.88   86.93</time>
   <time name="total">   87.67   87.72</time>
   <energy>
    <i name="e_fr_energy">   -285.02730006 </i>
    <i name="e_wo_entrp">   -285.02730006 </i>
    <i name="e_0_energy">   -285.02730006 </i>
   </energy>
  </scstep>
  <scstep>
   <time name="dav">   66.28   66.29</time>
   <time name="total">   67.11   67.13</time>
   <energy>
    <i name="e_fr_energy">   -287.29363050 </i>
    <i name="e_wo_entrp">   -287.29363050 </i>
    <i name="e_0_energy">   -287.29363050 </i>
   </energy>
  </scstep>
  <scstep>
   <time name="dav">   77.91   77.92</time>
   <time name="total">   78.69   78.71</time>
   <energy>
    <i name="e_fr_energy">   -286.44846570 </i>
    <i name="e_wo_entrp">   -286.44846570 </i>
    <i name="e_0_energy">   -286.44846570 </i>
   </energy>
  </scstep>
  <scstep>
   <time name="dav">   78.86   79.00</time>
   <time name="total">   79.64   79.79</time>
   <energy>
    <i name="e_fr_energy">   -286.02317267 </i>
    <i name="e_wo_entrp">   -286.02317267 </i>
    <i name="e_0_energy">   -286.02317267 </i>
   </energy>
  </scstep>
  <scstep>
   <time name="dav">   75.12   75.55</time>
   <time name="total">   75.91   76.34</time>
   <energy>
    <i name="e_fr_energy">   -286.03711838 </i>
    <i name="e_wo_entrp">   -286.03711838 </i>
    <i name="e_0_energy">   -286.03711838 </i>
   </energy>
  </scstep>
  <scstep>
   <time name="dav">   79.35   79.76</time>
   <time name="total">   80.13   80.55</time>
   <energy>
    <i name="e_fr_energy">   -286.04289375 </i>
    <i name="e_wo_entrp">   -286.04289375 </i>
    <i name="e_0_energy">   -286.04289375 </i>
   </energy>
  </scstep>
  <scstep>
   <time name="dav">   76.15   76.47</time>
   <time name="total">   76.94   77.27</time>
   <energy>
    <i name="e_fr_energy">   -286.04546866 </i>
    <i name="e_wo_entrp">   -286.04546866 </i>
    <i name="e_0_energy">   -286.04546866 </i>
   </energy>
  </scstep>
  <scstep>
   <time name="dav">   73.49   73.95</time>
   <time name="total">   74.29   74.74</time>
   <energy>
    <i name="e_fr_energy">   -286.04673530 </i>
    <i name="e_wo_entrp">   -286.04673530 </i>
    <i name="e_0_energy">   -286.04673530 </i>
   </energy>
  </scstep>
  <scstep>
   <time name="dav">   77.70   77.94</time>
   <time name="total">   78.49   78.73</time>
   <energy>
    <i name="e_fr_energy">   -286.04687524 </i>
    <i name="e_wo_entrp">   -286.04687524 </i>
    <i name="e_0_energy">   -286.04687524 </i>
   </energy>
  </scstep>
  <scstep>
   <time name="dav">   78.69   79.11</time>
   <time name="total">   79.48   79.90</time>
   <energy>
    <i name="e_fr_energy">   -286.04690295 </i>
    <i name="e_wo_entrp">   -286.04690295 </i>
    <i name="e_0_energy">   -286.04690295 </i>
   </energy>
  </scstep>
  <scstep>
   <time name="dav">   60.83   60.84</time>
   <time name="total">   61.62   61.63</time>
   <energy>
    <i name="e_fr_energy">   -286.04691677 </i>
    <i name="e_wo_entrp">   -286.04691677 </i>
    <i name="e_0_energy">   -286.04691677 </i>
   </energy>
  </scstep>
  <scstep>
   <time name="dav">   69.54   69.56</time>
   <time name="total">   70.33   70.35</time>
   <energy>
    <i name="e_fr_energy">   -286.04691843 </i>
    <i name="e_wo_entrp">   -286.04691843 </i>
    <i name="e_0_energy">   -286.04691843 </i>
   </energy>
  </scstep>
  <scstep>
   <time name="dav">   56.59   56.62</time>
   <time name="total">   56.67   56.69</time>
   <energy>
    <i name="alphaZ">   1054.17224280 </i>
    <i name="ewald"> -30164.84802486 </i>
    <i name="hartreedc"> -12965.09319530 </i>
    <i name="XCdc">   1198.81797100 </i>
    <i name="pawpsdc">  43580.60958147 </i>
    <i name="pawaedc"> -42808.07856154 </i>
    <i name="eentropy">      0.00000000 </i>
    <i name="bandstr">  -3825.14488232 </i>
    <i name="atom">  43643.51795008 </i>
    <i name="e_fr_energy">   -286.04691868 </i>
    <i name="e_wo_entrp">   -286.04691868 </i>
    <i name="e_0_energy">   -286.04691868 </i>
   </energy>
  </scstep>
  <structure>
   <crystal>
    <varray name="basis" >
     <v>      11.17850000       0.00000000       0.00000000 </v>
     <v>       0.00000000       9.57460000       0.00000000 </v>
     <v>       0.00000000       0.00000000      11.18240000 </v>
    </varray>
    <i name="volume">   1196.84853820 </i>
    <varray name="rec_basis" >
     <v>       0.08945744       0.00000000       0.00000000 </v>
     <v>       0.00000000       0.10444301       0.00000000 </v>
     <v>       0.00000000       0.00000000       0.08942624 </v>
    </varray>
   </crystal>
   <varray name="positions" >
    <v>       0.12461000       0.99984000       0.18687000 </v>
    <v>       0.37461000       0.00017000       0.18687000 </v>
    <v>       0.12539000       0.99984000       0.93687000 </v>
    <v>       0.37539000       0.00017000       0.93687000 </v>
    <v>       0.37539000       0.00017000       0.43687000 </v>
    <v>       0.87539000       0.00017000       0.43687000 </v>
    <v>       0.62461000       0.99984000       0.18687000 </v>
    <v>       0.12461000       0.99984000       0.68687000 </v>
    <v>       0.87539000       0.00017000       0.93687000 </v>
    <v>       0.62461000       0.99984000       0.68687000 </v>
    <v>       0.00013000       0.29519000       0.06281000 </v>
    <v>       0.25013000       0.70481000       0.06281000 </v>
    <v>       0.24987000       0.29519000       0.31282000 </v>
    <v>       0.49987000       0.70481000       0.31282000 </v>
    <v>       0.50013000       0.29519000       0.06281000 </v>
    <v>       0.75013000       0.70481000       0.06281000 </v>
    <v>       0.74987000       0.29519000       0.31282000 </v>
    <v>       0.99987000       0.70481000       0.31282000 </v>
    <v>       0.00013000       0.29519000       0.56281000 </v>
    <v>       0.25013000       0.70481000       0.56281000 </v>
    <v>       0.24987000       0.29519000       0.81282000 </v>
    <v>       0.49987000       0.70481000       0.81282000 </v>
    <v>       0.50013000       0.29519000       0.56281000 </v>
    <v>       0.75013000       0.70481000       0.56281000 </v>
    <v>       0.74987000       0.29519000       0.81282000 </v>
    <v>       0.99987000       0.70481000       0.81282000 </v>
    <v>       0.25005000       0.32677000       0.06286000 </v>
    <v>       0.00005000       0.67323000       0.06286000 </v>
    <v>       0.49995000       0.32677000       0.31286000 </v>
    <v>       0.24995000       0.67323000       0.31286000 </v>
    <v>       0.75005000       0.32677000       0.06286000 </v>
    <v>       0.50005000       0.67323000       0.06286000 </v>
    <v>       0.99995000       0.32677000       0.31286000 </v>
    <v>       0.74995000       0.67323000       0.31286000 </v>
    <v>       0.25005000       0.32677000       0.56286000 </v>
    <v>       0.00005000       0.67323000       0.56286000 </v>
    <v>       0.49995000       0.32677000       0.81286000 </v>
    <v>       0.24995000       0.67323000       0.81286000 </v>
    <v>       0.75005000       0.32677000       0.56286000 </v>
    <v>       0.50005000       0.67323000       0.56286000 </v>
    <v>       0.99995000       0.32677000       0.81286000 </v>
    <v>       0.74995000       0.67323000       0.81286000 </v>
    <v>       0.49987000       0.07798000       0.06246000 </v>
    <v>       0.24987000       0.92202000       0.06246000 </v>
    <v>       0.25013000       0.07798000       0.31246000 </v>
    <v>       0.00013000       0.92202000       0.31246000 </v>
    <v>       0.99987000       0.07798000       0.06246000 </v>
    <v>       0.74987000       0.92202000       0.06246000 </v>
    <v>       0.75013000       0.07798000       0.31246000 </v>
    <v>       0.50013000       0.92202000       0.31246000 </v>
    <v>       0.49987000       0.07798000       0.56246000 </v>
    <v>       0.24987000       0.92202000       0.56246000 </v>
    <v>       0.25013000       0.07798000       0.81246000 </v>
    <v>       0.00013000       0.92202000       0.81246000 </v>
    <v>       0.99987000       0.07798000       0.56246000 </v>
    <v>       0.74987000       0.92202000       0.56246000 </v>
    <v>       0.75013000       0.07798000       0.81246000 </v>
    <v>       0.50013000       0.92202000       0.81246000 </v>
   </varray>
  </structure>
  <varray name="forces" >
   <v>      -0.41163560      -0.06825556       0.42228203 </v>
   <v>      -0.31091009       0.05733957      -0.30221279 </v>
   <v>       0.31092648       0.05985231       0.31726744 </v>
   <v>       0.41118930      -0.07033325      -0.41412007 </v>
   <v>      -0.20581104       0.10818916       0.85224600 </v>
   <v>       0.14153527      -0.12827592      -0.14239406 </v>
   <v>       0.85356967       0.11712143      -0.15385254 </v>
   <v>       0.20751210       0.11957670      -0.79562413 </v>
   <v>      -0.85314156       0.11121914       0.21196893 </v>
   <v>      -0.14214210      -0.11760845       0.19911398 </v>
   <v>      -0.02188028       0.02664568       0.28839926 </v>
   <v>      -0.00775690      -0.05705755      -0.00411715 </v>
   <v>      -0.28905476       0.03087984       0.00865282 </v>
   <v>       0.11746279      -1.01304899       0.10384978 </v>
   <v>       0.00576053       0.04673503      -0.29888389 </v>
   <v>      -0.00031497       0.08280083      -0.00410417 </v>
   <v>       0.10330355      -0.07144343      -0.01246465 </v>
   <v>       0.09137665       0.99951407      -0.08939169 </v>
   <v>      -0.00447852      -0.05292613      -0.10590154 </v>
   <v>      -0.00078235       0.08181234      -0.00416190 </v>
   <v>       0.29701523       0.02684452      -0.01799434 </v>
   <v>      -0.07092844       1.00716253       0.07597109 </v>
   <v>      -0.01655387      -0.05417432       0.09733826 </v>
   <v>      -0.00305046       0.06853487      -0.00509147 </v>
   <v>      -0.10002333      -0.07166685       0.00244345 </v>
   <v>      -0.10050319      -1.02423340      -0.11038679 </v>
   <v>       0.00109569       0.19851919       0.00031174 </v>
   <v>      -0.00666972      -0.13060240      -0.24374634 </v>
   <v>      -0.03275475       0.10983119      -0.03122299 </v>
   <v>       0.24355262      -0.13039780       0.00617724 </v>
   <v>      -0.00393955       0.09139149      -0.00066458 </v>
   <v>       0.00707691      -0.12807322       0.24303533 </v>
   <v>      -0.02645923       0.12515718       0.02903137 </v>
   <v>      -0.18158007      -0.10074963      -0.01251235 </v>
   <v>      -0.00177686       0.09073037      -0.00123984 </v>
   <v>       0.01313846      -0.09753612       0.18453619 </v>
   <v>       0.02613112       0.12642591      -0.02741304 </v>
   <v>      -0.24301684      -0.13058692      -0.00720462 </v>
   <v>      -0.00185807       0.09998868      -0.00079898 </v>
   <v>      -0.01157362      -0.09890559      -0.18394562 </v>
   <v>       0.03111160       0.10992208       0.02975723 </v>
   <v>       0.18708772      -0.09980726       0.01097396 </v>
   <v>      -0.12950407      -0.00125260       1.23970363 </v>
   <v>       0.00728500       0.03282376      -0.00145026 </v>
   <v>       1.23830680       0.00542453      -0.13092493 </v>
   <v>      -0.47810561      -0.93743558       0.47635115 </v>
   <v>       0.13566903       0.00286716      -1.24882205 </v>
   <v>       0.01341904      -0.27598959      -0.01111375 </v>
   <v>      -0.15660809       0.28312452      -0.04209034 </v>
   <v>      -0.63138849       0.64473684      -0.63871595 </v>
   <v>      -0.02979186       0.27922015      -0.14816060 </v>
   <v>       0.01395237      -0.27472775      -0.01129559 </v>
   <v>      -1.25985620      -0.00140822       0.11609604 </v>
   <v>       0.63048566       0.64824601       0.61919969 </v>
   <v>       0.03287432       0.27815636       0.13674732 </v>
   <v>       0.01508704      -0.27963005      -0.01158386 </v>
   <v>       0.12807165       0.28218854       0.01939571 </v>
   <v>       0.46985386      -0.93685540      -0.47724278 </v>
  </varray>
  <varray name="stress" >
   <v>     -10.41887397      -0.35309269       0.21924237 </v>
   <v>      -0.35309264     -13.00955415      -0.00387735 </v>
   <v>       0.21924221      -0.00387737     -11.01749806 </v>
  </varray>
  <energy>
   <i name="e_fr_energy">   -297.78536590 </i>
   <i name="e_wo_entrp">   -297.78536590 </i>
   <i name="e_0_energy">      0.00000000 </i>
  </energy>
  <time name="totalsc"> 1441.60 1445.34</time>
  <eigenvalues>
   <array>
    <dimension dim="1">band</dimension>
    <dimension dim="2">kpoint</dimension>
    <dimension dim="3">spin</dimension>
    <field>eigene</field>
    <field>occ</field>
    <set>
     <set comment="spin 1">
      <set comment="kpoint 1">
       <r>  -40.1167    1.0000 </r>
       <r>  -40.1162    1.0000 </r>
       <r>  -39.6388    1.0000 </r>
       <r>  -39.6381    1.0000 </r>
       <r>  -18.8977    1.0000 </r>
       <r>  -18.8947    1.0000 </r>
       <r>  -18.8323    1.0000 </r>
       <r>  -18.8290    1.0000 </r>
       <r>  -18.8258    1.0000 </r>
       <r>  -18.8209    1.0000 </r>
       <r>  -18.7334    1.0000 </r>
       <r>  -18.7283    1.0000 </r>
       <r>  -18.7259    1.0000 </r>
       <r>  -18.7239    1.0000 </r>
       <r>  -18.7135    1.0000 </r>
       <r>  -18.7081    1.0000 </r>
       <r>  -18.7078    1.0000 </r>
       <r>  -18.7067    1.0000 </r>
       <r>  -18.7057    1.0000 </r>
       <r>  -18.7052    1.0000 </r>
       <r>  -18.7047    1.0000 </r>
       <r>  -18.7021    1.0000 </r>
       <r>  -18.6952    1.0000 </r>
       <r>  -18.6944    1.0000 </r>
       <r>  -18.6942    1.0000 </r>
       <r>  -18.6934    1.0000 </r>
       <r>  -18.6882    1.0000 </r>
       <r>  -18.6873    1.0000 </r>
       <r>  -18.6868    1.0000 </r>
       <r>  -18.6857    1.0000 </r>
       <r>  -18.6843    1.0000 </r>
       <r>  -18.6840    1.0000 </r>
       <r>  -18.6815    1.0000 </r>
       <r>  -18.6777    1.0000 </r>
       <r>  -18.6766    1.0000 </r>
       <r>  -18.6745    1.0000 </r>
       <r>  -18.6743    1.0000 </r>
       <r>  -18.6723    1.0000 </r>
       <r>  -18.6701    1.0000 </r>
       <r>  -18.6690    1.0000 </r>
       <r>  -18.6684    1.0000 </r>
       <r>  -18.6670    1.0000 </r>
       <r>  -18.6639    1.0000 </r>
       <r>  -18.6631    1.0000 </r>
       <r>  -18.6611    1.0000 </r>
       <r>  -18.6569    1.0000 </r>
       <r>  -18.6544    1.0000 </r>
       <r>  -18.6529    1.0000 </r>
       <r>  -18.6483    1.0000 </r>
       <r>  -18.6474    1.0000 </r>
       <r>  -18.5595    1.0000 </r>
       <r>  -18.5569    1.0000 </r>
       <r>  -18.5515    1.0000 </r>
       <r>  -18.5509    1.0000 </r>
       <r>  -18.5439    1.0000 </r>
       <r>  -18.5407    1.0000 </r>
       <r>  -18.5403    1.0000 </r>
       <r>  -18.5400    1.0000 </r>
       <r>  -18.5364    1.0000 </r>
       <r>  -18.5343    1.0000 </r>
       <r>  -18.5317    1.0000 </r>
       <r>  -18.5310    1.0000 </r>
       <r>  -18.5304    1.0000 </r>
       <r>  -18.5291    1.0000 </r>
       <r>  -18.5268    1.0000 </r>
       <r>  -18.5257    1.0000 </r>
       <r>  -18.5191    1.0000 </r>
       <r>  -18.5121    1.0000 </r>
       <r>  -18.5115    1.0000 </r>
       <r>  -18.5109    1.0000 </r>
       <r>  -18.5094    1.0000 </r>
       <r>  -18.5027    1.0000 </r>
       <r>  -18.5022    1.0000 </r>
       <r>  -18.5005    1.0000 </r>
       <r>  -18.4968    1.0000 </r>
       <r>  -18.4961    1.0000 </r>
       <r>  -18.4957    1.0000 </r>
       <r>  -18.4907    1.0000 </r>
       <r>  -18.4276    1.0000 </r>
       <r>  -18.4257    1.0000 </r>
       <r>  -18.3162    1.0000 </r>
       <r>  -18.3150    1.0000 </r>
       <r>  -18.2902    1.0000 </r>
       <r>  -18.2890    1.0000 </r>
       <r>  -13.4890    1.0000 </r>
       <r>  -13.4766    1.0000 </r>
       <r>  -12.9200    1.0000 </r>
       <r>  -12.8523    1.0000 </r>
       <r>  -12.8193    1.0000 </r>
       <r>  -12.7895    1.0000 </r>
       <r>  -12.7794    1.0000 </r>
       <r>  -12.7521    1.0000 </r>
       <r>  -12.7177    1.0000 </r>
       <r>  -12.7140    1.0000 </r>
       <r>  -12.6987    1.0000 </r>
       <r>  -12.6795    1.0000 </r>
       <r>  -12.6519    1.0000 </r>
       <r>  -12.6434    1.0000 </r>
       <r>  -12.1033    1.0000 </r>
       <r>  -12.0982    1.0000 </r>
       <r>   -9.3671    1.0000 </r>
       <r>   -9.0691    1.0000 </r>
       <r>   -8.5986    1.0000 </r>
       <r>   -8.5354    1.0000 </r>
       <r>   -8.5329    1.0000 </r>
       <r>   -8.4734    1.0000 </r>
       <r>   -8.3725    1.0000 </r>
       <r>   -8.3078    1.0000 </r>
       <r>   -8.3055    1.0000 </r>
       <r>   -8.2453    1.0000 </r>
       <r>   -8.0920    1.0000 </r>
       <r>   -8.0786    1.0000 </r>
       <r>   -8.0770    1.0000 </r>
       <r>   -8.0634    1.0000 </r>
       <r>   -7.4146    1.0000 </r>
       <r>   -7.4063    1.0000 </r>
       <r>   -6.4205    1.0000 </r>
       <r>   -6.4107    1.0000 </r>
       <r>   -6.3818    1.0000 </r>
       <r>   -6.3712    1.0000 </r>
       <r>   -5.5144    1.0000 </r>
       <r>   -5.5020    1.0000 </r>
       <r>   -5.4545    1.0000 </r>
       <r>   -5.3837    1.0000 </r>
       <r>   -5.3830    1.0000 </r>
       <r>   -5.3267    1.0000 </r>
       <r>   -5.2904    1.0000 </r>
       <r>   -5.2165    1.0000 </r>
       <r>   -5.2130    1.0000 </r>
       <r>   -5.0751    1.0000 </r>
       <r>   -3.8661    1.0000 </r>
       <r>   -3.7171    1.0000 </r>
       <r>   -1.5621    1.0000 </r>
       <r>   -1.3113    1.0000 </r>
       <r>   -1.1884    1.0000 </r>
       <r>   -0.9967    1.0000 </r>
       <r>   -0.6553    1.0000 </r>
       <r>   -0.5911    1.0000 </r>
       <r>   -0.5328    1.0000 </r>
       <r>   -0.5120    1.0000 </r>
       <r>   -0.2476    1.0000 </r>
       <r>   -0.2348    1.0000 </r>
       <r>   -0.2055    1.0000 </r>
       <r>   -0.1799    1.0000 </r>
       <r>    0.0535    1.0000 </r>
       <r>    0.1354    1.0000 </r>
       <r>    0.2123    1.0000 </r>
       <r>    0.3440    1.0000 </r>
       <r>    0.4247    1.0000 </r>
       <r>    0.5539    1.0000 </r>
       <r>    0.5991    1.0000 </r>
       <r>    0.6161    1.0000 </r>
       <r>    0.6594    1.0000 </r>
       <r>    0.6601    1.0000 </r>
       <r>    0.6803    1.0000 </r>
       <r>    0.6927    1.0000 </r>
       <r>    0.7528    1.0000 </r>
       <r>    0.7632    1.0000 </r>
       <r>    0.8057    1.0000 </r>
       <r>    0.8179    1.0000 </r>
       <r>    0.8726    1.0000 </r>
       <r>    0.9086    1.0000 </r>
       <r>    0.9326    1.0000 </r>
       <r>    0.9601    1.0000 </r>
       <r>    1.0236    1.0000 </r>
       <r>    1.1401    1.0000 </r>
       <r>    1.1562    1.0000 </r>
       <r>    1.1841    1.0000 </r>
       <r>    1.3120    1.0000 </r>
       <r>    1.3489    1.0000 </r>
       <r>    1.3588    1.0000 </r>
       <r>    1.4436    1.0000 </r>
       <r>    1.4580    1.0000 </r>
       <r>    1.4632    1.0000 </r>
       <r>    1.4825    1.0000 </r>
       <r>    1.5253    1.0000 </r>
       <r>    1.5624    1.0000 </r>
       <r>    1.5876    1.0000 </r>
       <r>    1.6633    1.0000 </r>
       <r>    1.7792    1.0000 </r>
       <r>    1.7949    1.0000 </r>
       <r>    1.8777    1.0000 </r>
       <r>    1.9306    1.0000 </r>
       <r>    1.9380    1.0000 </r>
       <r>    1.9536    1.0000 </r>
       <r>    2.0487    1.0000 </r>
       <r>    2.1702    1.0000 </r>
       <r>    2.2360    1.0000 </r>
       <r>    2.3267    1.0000 </r>
       <r>    2.3655    1.0000 </r>
       <r>    2.4347    1.0000 </r>
       <r>    2.5091    1.0000 </r>
       <r>    2.5168    1.0000 </r>
       <r>    2.5545    1.0000 </r>
       <r>    2.5697    1.0000 </r>
       <r>    2.5753    1.0000 </r>
       <r>    2.6236    1.0000 </r>
       <r>    2.6690    1.0000 </r>
       <r>    2.6770    1.0000 </r>
       <r>    2.7107    1.0000 </r>
       <r>    2.7504    1.0000 </r>
       <r>    2.7513    1.0000 </r>
       <r>    2.7877    1.0000 </r>
       <r>    2.8439    1.0000 </r>
       <r>    2.8585    1.0000 </r>
       <r>    2.8759    1.0000 </r>
       <r>    2.8769    1.0000 </r>
       <r>    2.9475    1.0000 </r>
       <r>    3.0013    1.0000 </r>
       <r>    3.0064    1.0000 </r>
       <r>    3.0114    1.0000 </r>
       <r>    3.0591    1.0000 </r>
       <r>    3.0693    1.0000 </r>
       <r>    3.1129    1.0000 </r>
       <r>    3.1188    1.0000 </r>
       <r>    3.1310    1.0000 </r>
       <r>    3.1328    1.0000 </r>
       <r>    3.1836    1.0000 </r>
       <r>    3.1939    1.0000 </r>
       <r>    3.3617    1.0000 </r>
       <r>    3.3648    1.0000 </r>
       <r>    3.4647    1.0000 </r>
       <r>    3.4763    1.0000 </r>
       <r>    3.6362    1.0000 </r>
       <r>    4.1073    1.0000 </r>
       <r>    4.1251    1.0000 </r>
       <r>    4.1739    1.0000 </r>
       <r>    4.1926    1.0000 </r>
       <r>    4.9342    0.0000 </r>
       <r>    4.9528    0.0000 </r>
       <r>    5.1623    0.0000 </r>
       <r>    5.1826    0.0000 </r>
       <r>    5.6785    0.0000 </r>
       <r>    5.6958    0.0000 </r>
       <r>    5.8191    0.0000 </r>
       <r>    5.8425    0.0000 </r>
       <r>    6.0473    0.0000 </r>
       <r>    6.0713    0.0000 </r>
       <r>    6.0749    0.0000 </r>
       <r>    6.0971    0.0000 </r>
       <r>    6.1701    0.0000 </r>
       <r>    6.1863    0.0000 </r>
       <r>    6.1899    0.0000 </r>
       <r>    6.2106    0.0000 </r>
       <r>    6.9932    0.0000 </r>
       <r>    7.0346    0.0000 </r>
       <r>    7.3382    0.0000 </r>
       <r>    7.3523    0.0000 </r>
       <r>    7.6364    0.0000 </r>
       <r>    7.8706    0.0000 </r>
       <r>    7.8716    0.0000 </r>
       <r>    7.8764    0.0000 </r>
       <r>    7.8914    0.0000 </r>
       <r>    7.9109    0.0000 </r>
       <r>    7.9597    0.0000 </r>
       <r>    8.1237    0.0000 </r>
       <r>    8.2223    0.0000 </r>
       <r>    8.5649    0.0000 </r>
       <r>    8.6175    0.0000 </r>
       <r>    8.7045    0.0000 </r>
       <r>    8.7414    0.0000 </r>
       <r>    8.7514    0.0000 </r>
       <r>    8.9271    0.0000 </r>
       <r>    8.9862    0.0000 </r>
       <r>    8.9939    0.0000 </r>
       <r>    8.9953    0.0000 </r>
       <r>    9.0249    0.0000 </r>
       <r>    9.0489    0.0000 </r>
       <r>    9.0670    0.0000 </r>
       <r>    9.1184    0.0000 </r>
       <r>    9.1731    0.0000 </r>
       <r>    9.1923    0.0000 </r>
       <r>    9.3225    0.0000 </r>
       <r>    9.3901    0.0000 </r>
       <r>    9.4361    0.0000 </r>
       <r>    9.4487    0.0000 </r>
       <r>    9.6423    0.0000 </r>
       <r>    9.7042    0.0000 </r>
       <r>    9.7796    0.0000 </r>
       <r>    9.8388    0.0000 </r>
      </set>
      <set comment="kpoint 2">
       <r>  -40.1167    1.0000 </r>
       <r>  -40.1162    1.0000 </r>
       <r>  -39.6388    1.0000 </r>
       <r>  -39.6380    1.0000 </r>
       <r>  -18.8976    1.0000 </r>
       <r>  -18.8948    1.0000 </r>
       <r>  -18.8315    1.0000 </r>
       <r>  -18.8297    1.0000 </r>
       <r>  -18.8243    1.0000 </r>
       <r>  -18.8224    1.0000 </r>
       <r>  -18.7283    1.0000 </r>
       <r>  -18.7274    1.0000 </r>
       <r>  -18.7259    1.0000 </r>
       <r>  -18.7192    1.0000 </r>
       <r>  -18.7188    1.0000 </r>
       <r>  -18.7136    1.0000 </r>
       <r>  -18.7081    1.0000 </r>
       <r>  -18.7076    1.0000 </r>
       <r>  -18.7057    1.0000 </r>
       <r>  -18.7051    1.0000 </r>
       <r>  -18.7048    1.0000 </r>
       <r>  -18.7013    1.0000 </r>
       <r>  -18.7003    1.0000 </r>
       <r>  -18.6990    1.0000 </r>
       <r>  -18.6954    1.0000 </r>
       <r>  -18.6938    1.0000 </r>
       <r>  -18.6915    1.0000 </r>
       <r>  -18.6896    1.0000 </r>
       <r>  -18.6842    1.0000 </r>
       <r>  -18.6822    1.0000 </r>
       <r>  -18.6810    1.0000 </r>
       <r>  -18.6797    1.0000 </r>
       <r>  -18.6785    1.0000 </r>
       <r>  -18.6770    1.0000 </r>
       <r>  -18.6763    1.0000 </r>
       <r>  -18.6747    1.0000 </r>
       <r>  -18.6712    1.0000 </r>
       <r>  -18.6698    1.0000 </r>
       <r>  -18.6691    1.0000 </r>
       <r>  -18.6686    1.0000 </r>
       <r>  -18.6677    1.0000 </r>
       <r>  -18.6672    1.0000 </r>
       <r>  -18.6644    1.0000 </r>
       <r>  -18.6641    1.0000 </r>
       <r>  -18.6631    1.0000 </r>
       <r>  -18.6563    1.0000 </r>
       <r>  -18.6552    1.0000 </r>
       <r>  -18.6537    1.0000 </r>
       <r>  -18.6515    1.0000 </r>
       <r>  -18.6475    1.0000 </r>
       <r>  -18.5593    1.0000 </r>
       <r>  -18.5569    1.0000 </r>
       <r>  -18.5518    1.0000 </r>
       <r>  -18.5511    1.0000 </r>
       <r>  -18.5438    1.0000 </r>
       <r>  -18.5407    1.0000 </r>
       <r>  -18.5403    1.0000 </r>
       <r>  -18.5396    1.0000 </r>
       <r>  -18.5365    1.0000 </r>
       <r>  -18.5344    1.0000 </r>
       <r>  -18.5317    1.0000 </r>
       <r>  -18.5311    1.0000 </r>
       <r>  -18.5304    1.0000 </r>
       <r>  -18.5291    1.0000 </r>
       <r>  -18.5268    1.0000 </r>
       <r>  -18.5257    1.0000 </r>
       <r>  -18.5191    1.0000 </r>
       <r>  -18.5115    1.0000 </r>
       <r>  -18.5112    1.0000 </r>
       <r>  -18.5108    1.0000 </r>
       <r>  -18.5102    1.0000 </r>
       <r>  -18.5027    1.0000 </r>
       <r>  -18.5022    1.0000 </r>
       <r>  -18.4988    1.0000 </r>
       <r>  -18.4979    1.0000 </r>
       <r>  -18.4967    1.0000 </r>
       <r>  -18.4956    1.0000 </r>
       <r>  -18.4907    1.0000 </r>
       <r>  -18.4274    1.0000 </r>
       <r>  -18.4260    1.0000 </r>
       <r>  -18.3162    1.0000 </r>
       <r>  -18.3150    1.0000 </r>
       <r>  -18.2902    1.0000 </r>
       <r>  -18.2890    1.0000 </r>
       <r>  -13.4869    1.0000 </r>
       <r>  -13.4784    1.0000 </r>
       <r>  -12.8910    1.0000 </r>
       <r>  -12.8878    1.0000 </r>
       <r>  -12.8154    1.0000 </r>
       <r>  -12.8089    1.0000 </r>
       <r>  -12.7793    1.0000 </r>
       <r>  -12.7321    1.0000 </r>
       <r>  -12.7252    1.0000 </r>
       <r>  -12.7079    1.0000 </r>
       <r>  -12.6831    1.0000 </r>
       <r>  -12.6727    1.0000 </r>
       <r>  -12.6695    1.0000 </r>
       <r>  -12.6452    1.0000 </r>
       <r>  -12.1033    1.0000 </r>
       <r>  -12.0983    1.0000 </r>
       <r>   -9.1562    1.0000 </r>
       <r>   -9.1520    1.0000 </r>
       <r>   -8.8785    1.0000 </r>
       <r>   -8.8734    1.0000 </r>
       <r>   -8.3749    1.0000 </r>
       <r>   -8.3730    1.0000 </r>
       <r>   -8.3678    1.0000 </r>
       <r>   -8.3662    1.0000 </r>
       <r>   -8.1865    1.0000 </r>
       <r>   -8.1850    1.0000 </r>
       <r>   -8.1798    1.0000 </r>
       <r>   -8.1774    1.0000 </r>
       <r>   -7.7475    1.0000 </r>
       <r>   -7.7431    1.0000 </r>
       <r>   -7.6344    1.0000 </r>
       <r>   -7.6299    1.0000 </r>
       <r>   -5.9829    1.0000 </r>
       <r>   -5.9787    1.0000 </r>
       <r>   -5.9372    1.0000 </r>
       <r>   -5.9324    1.0000 </r>
       <r>   -5.8386    1.0000 </r>
       <r>   -5.8241    1.0000 </r>
       <r>   -5.7858    1.0000 </r>
       <r>   -5.7823    1.0000 </r>
       <r>   -5.6957    1.0000 </r>
       <r>   -5.6818    1.0000 </r>
       <r>   -5.5641    1.0000 </r>
       <r>   -5.5550    1.0000 </r>
       <r>   -4.4825    1.0000 </r>
       <r>   -4.4773    1.0000 </r>
       <r>   -4.3150    1.0000 </r>
       <r>   -4.3139    1.0000 </r>
       <r>   -1.2355    1.0000 </r>
       <r>   -1.2093    1.0000 </r>
       <r>   -0.8631    1.0000 </r>
       <r>   -0.8622    1.0000 </r>
       <r>   -0.4192    1.0000 </r>
       <r>   -0.4124    1.0000 </r>
       <r>   -0.0609    1.0000 </r>
       <r>   -0.0368    1.0000 </r>
       <r>    0.0188    1.0000 </r>
       <r>    0.0534    1.0000 </r>
       <r>    0.0964    1.0000 </r>
       <r>    0.1351    1.0000 </r>
       <r>    0.1768    1.0000 </r>
       <r>    0.1892    1.0000 </r>
       <r>    0.2342    1.0000 </r>
       <r>    0.2948    1.0000 </r>
       <r>    0.4216    1.0000 </r>
       <r>    0.4480    1.0000 </r>
       <r>    0.4958    1.0000 </r>
       <r>    0.5033    1.0000 </r>
       <r>    0.5305    1.0000 </r>
       <r>    0.5356    1.0000 </r>
       <r>    0.6325    1.0000 </r>
       <r>    0.6491    1.0000 </r>
       <r>    0.7213    1.0000 </r>
       <r>    0.7562    1.0000 </r>
       <r>    0.7828    1.0000 </r>
       <r>    0.8750    1.0000 </r>
       <r>    0.9412    1.0000 </r>
       <r>    1.0093    1.0000 </r>
       <r>    1.0392    1.0000 </r>
       <r>    1.0580    1.0000 </r>
       <r>    1.0992    1.0000 </r>
       <r>    1.1032    1.0000 </r>
       <r>    1.1556    1.0000 </r>
       <r>    1.2165    1.0000 </r>
       <r>    1.2365    1.0000 </r>
       <r>    1.2796    1.0000 </r>
       <r>    1.2893    1.0000 </r>
       <r>    1.3913    1.0000 </r>
       <r>    1.3990    1.0000 </r>
       <r>    1.4549    1.0000 </r>
       <r>    1.5067    1.0000 </r>
       <r>    1.5270    1.0000 </r>
       <r>    1.5603    1.0000 </r>
       <r>    1.5700    1.0000 </r>
       <r>    1.5852    1.0000 </r>
       <r>    1.6060    1.0000 </r>
       <r>    1.6357    1.0000 </r>
       <r>    1.6980    1.0000 </r>
       <r>    1.8709    1.0000 </r>
       <r>    1.8757    1.0000 </r>
       <r>    1.9735    1.0000 </r>
       <r>    1.9788    1.0000 </r>
       <r>    2.0062    1.0000 </r>
       <r>    2.0398    1.0000 </r>
       <r>    2.0709    1.0000 </r>
       <r>    2.0843    1.0000 </r>
       <r>    2.1197    1.0000 </r>
       <r>    2.2144    1.0000 </r>
       <r>    2.2593    1.0000 </r>
       <r>    2.3191    1.0000 </r>
       <r>    2.4311    1.0000 </r>
       <r>    2.4598    1.0000 </r>
       <r>    2.4899    1.0000 </r>
       <r>    2.5081    1.0000 </r>
       <r>    2.5261    1.0000 </r>
       <r>    2.5375    1.0000 </r>
       <r>    2.6284    1.0000 </r>
       <r>    2.6644    1.0000 </r>
       <r>    2.6679    1.0000 </r>
       <r>    2.6841    1.0000 </r>
       <r>    2.7709    1.0000 </r>
       <r>    2.7863    1.0000 </r>
       <r>    2.8248    1.0000 </r>
       <r>    2.8270    1.0000 </r>
       <r>    2.8737    1.0000 </r>
       <r>    2.8828    1.0000 </r>
       <r>    2.9521    1.0000 </r>
       <r>    2.9540    1.0000 </r>
       <r>    2.9998    1.0000 </r>
       <r>    3.0059    1.0000 </r>
       <r>    3.0412    1.0000 </r>
       <r>    3.1855    1.0000 </r>
       <r>    3.1885    1.0000 </r>
       <r>    3.2778    1.0000 </r>
       <r>    3.3674    1.0000 </r>
       <r>    3.3763    1.0000 </r>
       <r>    3.4083    1.0000 </r>
       <r>    3.4236    1.0000 </r>
       <r>    3.4387    1.0000 </r>
       <r>    3.4567    1.0000 </r>
       <r>    3.5600    1.0000 </r>
       <r>    3.5856    1.0000 </r>
       <r>    3.6859    1.0000 </r>
       <r>    3.7056    1.0000 </r>
       <r>    5.6146    0.0000 </r>
       <r>    5.6163    0.0000 </r>
       <r>    5.6315    0.0000 </r>
       <r>    5.6373    0.0000 </r>
       <r>    5.7229    0.0000 </r>
       <r>    5.7367    0.0000 </r>
       <r>    5.7470    0.0000 </r>
       <r>    5.7579    0.0000 </r>
       <r>    7.2113    0.0000 </r>
       <r>    7.2367    0.0000 </r>
       <r>    7.2491    0.0000 </r>
       <r>    7.2502    0.0000 </r>
       <r>    7.2662    0.0000 </r>
       <r>    7.3172    0.0000 </r>
       <r>    7.4016    0.0000 </r>
       <r>    7.4042    0.0000 </r>
       <r>    7.4727    0.0000 </r>
       <r>    7.4836    0.0000 </r>
       <r>    7.5076    0.0000 </r>
       <r>    7.5195    0.0000 </r>
       <r>    7.8025    0.0000 </r>
       <r>    7.8045    0.0000 </r>
       <r>    7.8056    0.0000 </r>
       <r>    7.8095    0.0000 </r>
       <r>    7.8266    0.0000 </r>
       <r>    7.8376    0.0000 </r>
       <r>    7.8853    0.0000 </r>
       <r>    7.8884    0.0000 </r>
       <r>    7.9292    0.0000 </r>
       <r>    7.9697    0.0000 </r>
       <r>    7.9932    0.0000 </r>
       <r>    8.0159    0.0000 </r>
       <r>    8.1381    0.0000 </r>
       <r>    8.2358    0.0000 </r>
       <r>    8.2730    0.0000 </r>
       <r>    8.3289    0.0000 </r>
       <r>    8.6591    0.0000 </r>
       <r>    8.6775    0.0000 </r>
       <r>    8.7274    0.0000 </r>
       <r>    8.7290    0.0000 </r>
       <r>    8.7375    0.0000 </r>
       <r>    8.7509    0.0000 </r>
       <r>    8.8600    0.0000 </r>
       <r>    8.8689    0.0000 </r>
       <r>    9.1535    0.0000 </r>
       <r>    9.1657    0.0000 </r>
       <r>    9.3576    0.0000 </r>
       <r>    9.4045    0.0000 </r>
       <r>    9.4143    0.0000 </r>
       <r>    9.4239    0.0000 </r>
       <r>   10.1590    0.0000 </r>
       <r>   10.1853    0.0000 </r>
      </set>
      <set comment="kpoint 3">
       <r>  -40.1167    1.0000 </r>
       <r>  -40.1162    1.0000 </r>
       <r>  -39.6388    1.0000 </r>
       <r>  -39.6380    1.0000 </r>
       <r>  -18.8977    1.0000 </r>
       <r>  -18.8947    1.0000 </r>
       <r>  -18.8323    1.0000 </r>
       <r>  -18.8290    1.0000 </r>
       <r>  -18.8258    1.0000 </r>
       <r>  -18.8209    1.0000 </r>
       <r>  -18.7334    1.0000 </r>
       <r>  -18.7283    1.0000 </r>
       <r>  -18.7259    1.0000 </r>
       <r>  -18.7239    1.0000 </r>
       <r>  -18.7135    1.0000 </r>
       <r>  -18.7082    1.0000 </r>
       <r>  -18.7078    1.0000 </r>
       <r>  -18.7069    1.0000 </r>
       <r>  -18.7056    1.0000 </r>
       <r>  -18.7052    1.0000 </r>
       <r>  -18.7047    1.0000 </r>
       <r>  -18.7021    1.0000 </r>
       <r>  -18.6951    1.0000 </r>
       <r>  -18.6943    1.0000 </r>
       <r>  -18.6942    1.0000 </r>
       <r>  -18.6934    1.0000 </r>
       <r>  -18.6882    1.0000 </r>
       <r>  -18.6874    1.0000 </r>
       <r>  -18.6868    1.0000 </r>
       <r>  -18.6857    1.0000 </r>
       <r>  -18.6843    1.0000 </r>
       <r>  -18.6840    1.0000 </r>
       <r>  -18.6815    1.0000 </r>
       <r>  -18.6777    1.0000 </r>
       <r>  -18.6766    1.0000 </r>
       <r>  -18.6744    1.0000 </r>
       <r>  -18.6743    1.0000 </r>
       <r>  -18.6724    1.0000 </r>
       <r>  -18.6701    1.0000 </r>
       <r>  -18.6690    1.0000 </r>
       <r>  -18.6684    1.0000 </r>
       <r>  -18.6670    1.0000 </r>
       <r>  -18.6639    1.0000 </r>
       <r>  -18.6631    1.0000 </r>
       <r>  -18.6611    1.0000 </r>
       <r>  -18.6569    1.0000 </r>
       <r>  -18.6544    1.0000 </r>
       <r>  -18.6529    1.0000 </r>
       <r>  -18.6483    1.0000 </r>
       <r>  -18.6474    1.0000 </r>
       <r>  -18.5595    1.0000 </r>
       <r>  -18.5569    1.0000 </r>
       <r>  -18.5515    1.0000 </r>
       <r>  -18.5509    1.0000 </r>
       <r>  -18.5439    1.0000 </r>
       <r>  -18.5407    1.0000 </r>
       <r>  -18.5403    1.0000 </r>
       <r>  -18.5400    1.0000 </r>
       <r>  -18.5364    1.0000 </r>
       <r>  -18.5343    1.0000 </r>
       <r>  -18.5316    1.0000 </r>
       <r>  -18.5310    1.0000 </r>
       <r>  -18.5304    1.0000 </r>
       <r>  -18.5291    1.0000 </r>
       <r>  -18.5268    1.0000 </r>
       <r>  -18.5257    1.0000 </r>
       <r>  -18.5191    1.0000 </r>
       <r>  -18.5121    1.0000 </r>
       <r>  -18.5115    1.0000 </r>
       <r>  -18.5109    1.0000 </r>
       <r>  -18.5094    1.0000 </r>
       <r>  -18.5027    1.0000 </r>
       <r>  -18.5022    1.0000 </r>
       <r>  -18.5005    1.0000 </r>
       <r>  -18.4968    1.0000 </r>
       <r>  -18.4961    1.0000 </r>
       <r>  -18.4957    1.0000 </r>
       <r>  -18.4907    1.0000 </r>
       <r>  -18.4276    1.0000 </r>
       <r>  -18.4257    1.0000 </r>
       <r>  -18.3162    1.0000 </r>
       <r>  -18.3150    1.0000 </r>
       <r>  -18.2902    1.0000 </r>
       <r>  -18.2890    1.0000 </r>
       <r>  -13.4888    1.0000 </r>
       <r>  -13.4766    1.0000 </r>
       <r>  -12.9185    1.0000 </r>
       <r>  -12.8517    1.0000 </r>
       <r>  -12.8187    1.0000 </r>
       <r>  -12.7895    1.0000 </r>
       <r>  -12.7795    1.0000 </r>
       <r>  -12.7520    1.0000 </r>
       <r>  -12.7177    1.0000 </r>
       <r>  -12.7140    1.0000 </r>
       <r>  -12.6988    1.0000 </r>
       <r>  -12.6815    1.0000 </r>
       <r>  -12.6527    1.0000 </r>
       <r>  -12.6444    1.0000 </r>
       <r>  -12.1037    1.0000 </r>
       <r>  -12.0986    1.0000 </r>
       <r>   -9.3552    1.0000 </r>
       <r>   -9.0781    1.0000 </r>
       <r>   -8.6168    1.0000 </r>
       <r>   -8.5527    1.0000 </r>
       <r>   -8.5503    1.0000 </r>
       <r>   -8.4900    1.0000 </r>
       <r>   -8.3514    1.0000 </r>
       <r>   -8.2879    1.0000 </r>
       <r>   -8.2855    1.0000 </r>
       <r>   -8.2263    1.0000 </r>
       <r>   -8.0962    1.0000 </r>
       <r>   -8.0829    1.0000 </r>
       <r>   -8.0808    1.0000 </r>
       <r>   -8.0673    1.0000 </r>
       <r>   -7.4173    1.0000 </r>
       <r>   -7.4091    1.0000 </r>
       <r>   -6.4101    1.0000 </r>
       <r>   -6.4003    1.0000 </r>
       <r>   -6.3724    1.0000 </r>
       <r>   -6.3617    1.0000 </r>
       <r>   -5.5576    1.0000 </r>
       <r>   -5.4943    1.0000 </r>
       <r>   -5.4476    1.0000 </r>
       <r>   -5.4326    1.0000 </r>
       <r>   -5.4290    1.0000 </r>
       <r>   -5.3596    1.0000 </r>
       <r>   -5.2372    1.0000 </r>
       <r>   -5.1574    1.0000 </r>
       <r>   -5.1563    1.0000 </r>
       <r>   -5.0330    1.0000 </r>
       <r>   -3.9429    1.0000 </r>
       <r>   -3.6281    1.0000 </r>
       <r>   -1.4403    1.0000 </r>
       <r>   -1.3500    1.0000 </r>
       <r>   -1.2717    1.0000 </r>
       <r>   -1.0484    1.0000 </r>
       <r>   -0.5401    1.0000 </r>
       <r>   -0.4770    1.0000 </r>
       <r>   -0.4513    1.0000 </r>
       <r>   -0.4354    1.0000 </r>
       <r>   -0.4285    1.0000 </r>
       <r>   -0.3949    1.0000 </r>
       <r>   -0.3192    1.0000 </r>
       <r>   -0.2962    1.0000 </r>
       <r>   -0.0798    1.0000 </r>
       <r>   -0.0437    1.0000 </r>
       <r>    0.0024    1.0000 </r>
       <r>    0.1330    1.0000 </r>
       <r>    0.2761    1.0000 </r>
       <r>    0.3036    1.0000 </r>
       <r>    0.4020    1.0000 </r>
       <r>    0.4125    1.0000 </r>
       <r>    0.4271    1.0000 </r>
       <r>    0.5195    1.0000 </r>
       <r>    0.5275    1.0000 </r>
       <r>    0.6377    1.0000 </r>
       <r>    0.6805    1.0000 </r>
       <r>    0.7182    1.0000 </r>
       <r>    0.7948    1.0000 </r>
       <r>    0.7988    1.0000 </r>
       <r>    0.8055    1.0000 </r>
       <r>    1.0825    1.0000 </r>
       <r>    1.1130    1.0000 </r>
       <r>    1.1259    1.0000 </r>
       <r>    1.1375    1.0000 </r>
       <r>    1.2115    1.0000 </r>
       <r>    1.2283    1.0000 </r>
       <r>    1.3690    1.0000 </r>
       <r>    1.4472    1.0000 </r>
       <r>    1.4818    1.0000 </r>
       <r>    1.4892    1.0000 </r>
       <r>    1.5254    1.0000 </r>
       <r>    1.5285    1.0000 </r>
       <r>    1.5834    1.0000 </r>
       <r>    1.5885    1.0000 </r>
       <r>    1.6124    1.0000 </r>
       <r>    1.6315    1.0000 </r>
       <r>    1.7613    1.0000 </r>
       <r>    1.7963    1.0000 </r>
       <r>    1.8501    1.0000 </r>
       <r>    1.9909    1.0000 </r>
       <r>    2.0298    1.0000 </r>
       <r>    2.0510    1.0000 </r>
       <r>    2.0513    1.0000 </r>
       <r>    2.1283    1.0000 </r>
       <r>    2.1449    1.0000 </r>
       <r>    2.2793    1.0000 </r>
       <r>    2.3583    1.0000 </r>
       <r>    2.4009    1.0000 </r>
       <r>    2.4143    1.0000 </r>
       <r>    2.4420    1.0000 </r>
       <r>    2.4809    1.0000 </r>
       <r>    2.5028    1.0000 </r>
       <r>    2.5156    1.0000 </r>
       <r>    2.5477    1.0000 </r>
       <r>    2.5526    1.0000 </r>
       <r>    2.5597    1.0000 </r>
       <r>    2.5838    1.0000 </r>
       <r>    2.6215    1.0000 </r>
       <r>    2.6901    1.0000 </r>
       <r>    2.6970    1.0000 </r>
       <r>    2.7161    1.0000 </r>
       <r>    2.8463    1.0000 </r>
       <r>    2.8518    1.0000 </r>
       <r>    2.8599    1.0000 </r>
       <r>    2.8706    1.0000 </r>
       <r>    2.8736    1.0000 </r>
       <r>    2.8990    1.0000 </r>
       <r>    2.9375    1.0000 </r>
       <r>    2.9557    1.0000 </r>
       <r>    2.9734    1.0000 </r>
       <r>    3.0072    1.0000 </r>
       <r>    3.1078    1.0000 </r>
       <r>    3.1212    1.0000 </r>
       <r>    3.1756    1.0000 </r>
       <r>    3.2623    1.0000 </r>
       <r>    3.3253    1.0000 </r>
       <r>    3.3352    1.0000 </r>
       <r>    3.3489    1.0000 </r>
       <r>    3.3543    1.0000 </r>
       <r>    3.3934    1.0000 </r>
       <r>    3.4139    1.0000 </r>
       <r>    3.5344    1.0000 </r>
       <r>    3.5987    1.0000 </r>
       <r>    4.1550    1.0000 </r>
       <r>    4.1749    1.0000 </r>
       <r>    4.2221    1.0000 </r>
       <r>    4.2434    1.0000 </r>
       <r>    5.0169    0.0000 </r>
       <r>    5.0352    0.0000 </r>
       <r>    5.2226    0.0000 </r>
       <r>    5.2446    0.0000 </r>
       <r>    5.6853    0.0000 </r>
       <r>    5.7027    0.0000 </r>
       <r>    5.8260    0.0000 </r>
       <r>    5.8496    0.0000 </r>
       <r>    6.0997    0.0000 </r>
       <r>    6.1173    0.0000 </r>
       <r>    6.1205    0.0000 </r>
       <r>    6.1369    0.0000 </r>
       <r>    6.1861    0.0000 </r>
       <r>    6.2056    0.0000 </r>
       <r>    6.2077    0.0000 </r>
       <r>    6.2328    0.0000 </r>
       <r>    6.7114    0.0000 </r>
       <r>    6.7877    0.0000 </r>
       <r>    6.9986    0.0000 </r>
       <r>    7.0640    0.0000 </r>
       <r>    7.1121    0.0000 </r>
       <r>    7.2142    0.0000 </r>
       <r>    7.2386    0.0000 </r>
       <r>    7.4862    0.0000 </r>
       <r>    7.4993    0.0000 </r>
       <r>    7.8041    0.0000 </r>
       <r>    7.8928    0.0000 </r>
       <r>    7.8977    0.0000 </r>
       <r>    8.0391    0.0000 </r>
       <r>    8.2433    0.0000 </r>
       <r>    8.2896    0.0000 </r>
       <r>    8.3923    0.0000 </r>
       <r>    8.5985    0.0000 </r>
       <r>    8.7531    0.0000 </r>
       <r>    8.9412    0.0000 </r>
       <r>    8.9599    0.0000 </r>
       <r>    8.9610    0.0000 </r>
       <r>    9.0076    0.0000 </r>
       <r>    9.0231    0.0000 </r>
       <r>    9.0329    0.0000 </r>
       <r>    9.0673    0.0000 </r>
       <r>    9.0707    0.0000 </r>
       <r>    9.1046    0.0000 </r>
       <r>    9.1425    0.0000 </r>
       <r>    9.4088    0.0000 </r>
       <r>    9.4205    0.0000 </r>
       <r>    9.4813    0.0000 </r>
       <r>    9.6716    0.0000 </r>
       <r>    9.6837    0.0000 </r>
       <r>    9.8497    0.0000 </r>
       <r>    9.9119    0.0000 </r>
       <r>    9.9749    0.0000 </r>
      </set>
      <set comment="kpoint 4">
       <r>  -40.1167    1.0000 </r>
       <r>  -40.1162    1.0000 </r>
       <r>  -39.6388    1.0000 </r>
       <r>  -39.6380    1.0000 </r>
       <r>  -18.8976    1.0000 </r>
       <r>  -18.8948    1.0000 </r>
       <r>  -18.8315    1.0000 </r>
       <r>  -18.8297    1.0000 </r>
       <r>  -18.8243    1.0000 </r>
       <r>  -18.8224    1.0000 </r>
       <r>  -18.7283    1.0000 </r>
       <r>  -18.7274    1.0000 </r>
       <r>  -18.7259    1.0000 </r>
       <r>  -18.7192    1.0000 </r>
       <r>  -18.7187    1.0000 </r>
       <r>  -18.7136    1.0000 </r>
       <r>  -18.7082    1.0000 </r>
       <r>  -18.7076    1.0000 </r>
       <r>  -18.7058    1.0000 </r>
       <r>  -18.7051    1.0000 </r>
       <r>  -18.7047    1.0000 </r>
       <r>  -18.7013    1.0000 </r>
       <r>  -18.7004    1.0000 </r>
       <r>  -18.6990    1.0000 </r>
       <r>  -18.6954    1.0000 </r>
       <r>  -18.6938    1.0000 </r>
       <r>  -18.6915    1.0000 </r>
       <r>  -18.6896    1.0000 </r>
       <r>  -18.6842    1.0000 </r>
       <r>  -18.6822    1.0000 </r>
       <r>  -18.6810    1.0000 </r>
       <r>  -18.6797    1.0000 </r>
       <r>  -18.6784    1.0000 </r>
       <r>  -18.6770    1.0000 </r>
       <r>  -18.6763    1.0000 </r>
       <r>  -18.6747    1.0000 </r>
       <r>  -18.6712    1.0000 </r>
       <r>  -18.6698    1.0000 </r>
       <r>  -18.6692    1.0000 </r>
       <r>  -18.6686    1.0000 </r>
       <r>  -18.6677    1.0000 </r>
       <r>  -18.6672    1.0000 </r>
       <r>  -18.6645    1.0000 </r>
       <r>  -18.6640    1.0000 </r>
       <r>  -18.6631    1.0000 </r>
       <r>  -18.6563    1.0000 </r>
       <r>  -18.6552    1.0000 </r>
       <r>  -18.6537    1.0000 </r>
       <r>  -18.6515    1.0000 </r>
       <r>  -18.6475    1.0000 </r>
       <r>  -18.5593    1.0000 </r>
       <r>  -18.5569    1.0000 </r>
       <r>  -18.5517    1.0000 </r>
       <r>  -18.5511    1.0000 </r>
       <r>  -18.5438    1.0000 </r>
       <r>  -18.5407    1.0000 </r>
       <r>  -18.5403    1.0000 </r>
       <r>  -18.5395    1.0000 </r>
       <r>  -18.5365    1.0000 </r>
       <r>  -18.5344    1.0000 </r>
       <r>  -18.5317    1.0000 </r>
       <r>  -18.5311    1.0000 </r>
       <r>  -18.5304    1.0000 </r>
       <r>  -18.5291    1.0000 </r>
       <r>  -18.5268    1.0000 </r>
       <r>  -18.5257    1.0000 </r>
       <r>  -18.5191    1.0000 </r>
       <r>  -18.5115    1.0000 </r>
       <r>  -18.5112    1.0000 </r>
       <r>  -18.5108    1.0000 </r>
       <r>  -18.5102    1.0000 </r>
       <r>  -18.5027    1.0000 </r>
       <r>  -18.5022    1.0000 </r>
       <r>  -18.4988    1.0000 </r>
       <r>  -18.4979    1.0000 </r>
       <r>  -18.4967    1.0000 </r>
       <r>  -18.4956    1.0000 </r>
       <r>  -18.4907    1.0000 </r>
       <r>  -18.4273    1.0000 </r>
       <r>  -18.4260    1.0000 </r>
       <r>  -18.3162    1.0000 </r>
       <r>  -18.3150    1.0000 </r>
       <r>  -18.2902    1.0000 </r>
       <r>  -18.2890    1.0000 </r>
       <r>  -13.4867    1.0000 </r>
       <r>  -13.4782    1.0000 </r>
       <r>  -12.8899    1.0000 </r>
       <r>  -12.8867    1.0000 </r>
       <r>  -12.8151    1.0000 </r>
       <r>  -12.8085    1.0000 </r>
       <r>  -12.7793    1.0000 </r>
       <r>  -12.7321    1.0000 </r>
       <r>  -12.7252    1.0000 </r>
       <r>  -12.7083    1.0000 </r>
       <r>  -12.6840    1.0000 </r>
       <r>  -12.6738    1.0000 </r>
       <r>  -12.6699    1.0000 </r>
       <r>  -12.6465    1.0000 </r>
[...]
       <r>    8.7606    0.0000 </r>
       <r>    8.7875    0.0000 </r>
       <r>    8.8254    0.0000 </r>
       <r>    8.8598    0.0000 </r>
       <r>    8.8713    0.0000 </r>
       <r>    8.8867    0.0000 </r>
       <r>    8.9349    0.0000 </r>
       <r>    9.6912    0.0000 </r>
       <r>    9.7243    0.0000 </r>
       <r>   10.0136    0.0000 </r>
       <r>   10.1222    0.0000 </r>
      </set>
     </set>
    </set>
   </array>
  </eigenvalues>
  <separator name="orbital magnetization" >
   <v name="MAGDIPOLOUT">      0.00000000      0.00000000      0.00000000</v>
  </separator>
  <dos>
   <i name="efermi">      4.40322268 </i>
   <total>
    <array>
     <dimension dim="1">gridpoints</dimension>
     <dimension dim="2">spin</dimension>
     <field>energy</field>
     <field>total</field>
     <field>integrated</field>
     <set>
      <set comment="spin 1">
       <r>   -42.6411     0.0000     0.0000 </r>
       <r>   -42.4560     0.0000     0.0000 </r>
       <r>   -42.2708     0.0000     0.0000 </r>
       <r>   -42.0857     0.0000     0.0000 </r>
       <r>   -41.9006     0.0000     0.0000 </r>
       <r>   -41.7155     0.0000     0.0000 </r>
       <r>   -41.5303     0.0000     0.0000 </r>
       <r>   -41.3452     0.0000     0.0000 </r>
       <r>   -41.1601     0.0000     0.0000 </r>
       <r>   -40.9750     0.0000     0.0000 </r>
       <r>   -40.7899     0.0000     0.0000 </r>
       <r>   -40.6047     0.0000     0.0000 </r>
       <r>   -40.4196     0.0000     0.0000 </r>
       <r>   -40.2345     0.0000     0.0000 </r>
       <r>   -40.0494     0.0000     4.0000 </r>
       <r>   -39.8642     0.0000     4.0000 </r>
       <r>   -39.6791     0.0000     4.0000 </r>
       <r>   -39.4940     0.0000     8.0000 </r>
       <r>   -39.3089     0.0000     8.0000 </r>
       <r>   -39.1238     0.0000     8.0000 </r>
       <r>   -38.9386     0.0000     8.0000 </r>
       <r>   -38.7535     0.0000     8.0000 </r>
       <r>   -38.5684     0.0000     8.0000 </r>
       <r>   -38.3833     0.0000     8.0000 </r>
       <r>   -38.1981     0.0000     8.0000 </r>
       <r>   -38.0130     0.0000     8.0000 </r>
       <r>   -37.8279     0.0000     8.0000 </r>
       <r>   -37.6428     0.0000     8.0000 </r>
       <r>   -37.4576     0.0000     8.0000 </r>
       <r>   -37.2725     0.0000     8.0000 </r>
       <r>   -37.0874     0.0000     8.0000 </r>
       <r>   -36.9023     0.0000     8.0000 </r>
       <r>   -36.7172     0.0000     8.0000 </r>
       <r>   -36.5320     0.0000     8.0000 </r>
       <r>   -36.3469     0.0000     8.0000 </r>
       <r>   -36.1618     0.0000     8.0000 </r>
       <r>   -35.9767     0.0000     8.0000 </r>
       <r>   -35.7915     0.0000     8.0000 </r>
       <r>   -35.6064     0.0000     8.0000 </r>
       <r>   -35.4213     0.0000     8.0000 </r>
       <r>   -35.2362     0.0000     8.0000 </r>
       <r>   -35.0511     0.0000     8.0000 </r>
       <r>   -34.8659     0.0000     8.0000 </r>
       <r>   -34.6808     0.0000     8.0000 </r>
       <r>   -34.4957     0.0000     8.0000 </r>
       <r>   -34.3106     0.0000     8.0000 </r>
       <r>   -34.1254     0.0000     8.0000 </r>
       <r>   -33.9403     0.0000     8.0000 </r>
       <r>   -33.7552     0.0000     8.0000 </r>
       <r>   -33.5701     0.0000     8.0000 </r>
       <r>   -33.3849     0.0000     8.0000 </r>
       <r>   -33.1998     0.0000     8.0000 </r>
       <r>   -33.0147     0.0000     8.0000 </r>
       <r>   -32.8296     0.0000     8.0000 </r>
       <r>   -32.6445     0.0000     8.0000 </r>
       <r>   -32.4593     0.0000     8.0000 </r>
       <r>   -32.2742     0.0000     8.0000 </r>
       <r>   -32.0891     0.0000     8.0000 </r>
       <r>   -31.9040     0.0000     8.0000 </r>
       <r>   -31.7188     0.0000     8.0000 </r>
       <r>   -31.5337     0.0000     8.0000 </r>
       <r>   -31.3486     0.0000     8.0000 </r>
       <r>   -31.1635     0.0000     8.0000 </r>
       <r>   -30.9784     0.0000     8.0000 </r>
       <r>   -30.7932     0.0000     8.0000 </r>
       <r>   -30.6081     0.0000     8.0000 </r>
       <r>   -30.4230     0.0000     8.0000 </r>
       <r>   -30.2379     0.0000     8.0000 </r>
       <r>   -30.0527     0.0000     8.0000 </r>
       <r>   -29.8676     0.0000     8.0000 </r>
       <r>   -29.6825     0.0000     8.0000 </r>
       <r>   -29.4974     0.0000     8.0000 </r>
       <r>   -29.3122     0.0000     8.0000 </r>
       <r>   -29.1271     0.0000     8.0000 </r>
       <r>   -28.9420     0.0000     8.0000 </r>
       <r>   -28.7569     0.0000     8.0000 </r>
       <r>   -28.5718     0.0000     8.0000 </r>
       <r>   -28.3866     0.0000     8.0000 </r>
       <r>   -28.2015     0.0000     8.0000 </r>
       <r>   -28.0164     0.0000     8.0000 </r>
       <r>   -27.8313     0.0000     8.0000 </r>
       <r>   -27.6461     0.0000     8.0000 </r>
       <r>   -27.4610     0.0000     8.0000 </r>
       <r>   -27.2759     0.0000     8.0000 </r>
       <r>   -27.0908     0.0000     8.0000 </r>
       <r>   -26.9057     0.0000     8.0000 </r>
       <r>   -26.7205     0.0000     8.0000 </r>
       <r>   -26.5354     0.0000     8.0000 </r>
       <r>   -26.3503     0.0000     8.0000 </r>
       <r>   -26.1652     0.0000     8.0000 </r>
       <r>   -25.9800     0.0000     8.0000 </r>
       <r>   -25.7949     0.0000     8.0000 </r>
       <r>   -25.6098     0.0000     8.0000 </r>
       <r>   -25.4247     0.0000     8.0000 </r>
       <r>   -25.2395     0.0000     8.0000 </r>
       <r>   -25.0544     0.0000     8.0000 </r>
       <r>   -24.8693     0.0000     8.0000 </r>
       <r>   -24.6842     0.0000     8.0000 </r>
       <r>   -24.4991     0.0000     8.0000 </r>
       <r>   -24.3139     0.0000     8.0000 </r>
       <r>   -24.1288     0.0000     8.0000 </r>
       <r>   -23.9437     0.0000     8.0000 </r>
       <r>   -23.7586     0.0000     8.0000 </r>
       <r>   -23.5734     0.0000     8.0000 </r>
       <r>   -23.3883     0.0000     8.0000 </r>
       <r>   -23.2032     0.0000     8.0000 </r>
       <r>   -23.0181     0.0000     8.0000 </r>
       <r>   -22.8330     0.0000     8.0000 </r>
       <r>   -22.6478     0.0000     8.0000 </r>
       <r>   -22.4627     0.0000     8.0000 </r>
       <r>   -22.2776     0.0000     8.0000 </r>
       <r>   -22.0925     0.0000     8.0000 </r>
       <r>   -21.9073     0.0000     8.0000 </r>
       <r>   -21.7222     0.0000     8.0000 </r>
       <r>   -21.5371     0.0000     8.0000 </r>
       <r>   -21.3520     0.0000     8.0000 </r>
       <r>   -21.1669     0.0000     8.0000 </r>
       <r>   -20.9817     0.0000     8.0000 </r>
       <r>   -20.7966     0.0000     8.0000 </r>
       <r>   -20.6115     0.0000     8.0000 </r>
       <r>   -20.4264     0.0000     8.0000 </r>
       <r>   -20.2412     0.0000     8.0000 </r>
       <r>   -20.0561     0.0000     8.0000 </r>
       <r>   -19.8710     0.0000     8.0000 </r>
       <r>   -19.6859     0.0000     8.0000 </r>
       <r>   -19.5007     0.0000     8.0000 </r>
       <r>   -19.3156     0.0000     8.0000 </r>
       <r>   -19.1305     0.0000     8.0000 </r>
       <r>   -18.9454     0.0000     8.0000 </r>
       <r>   -18.7603     0.0000    20.0000 </r>
       <r>   -18.5751     0.0000   100.0000 </r>
       <r>   -18.3900     0.0000   160.0000 </r>
       <r>   -18.2049     0.0000   168.0000 </r>
       <r>   -18.0198     0.0000   168.0000 </r>
       <r>   -17.8346     0.0000   168.0000 </r>
       <r>   -17.6495     0.0000   168.0000 </r>
       <r>   -17.4644     0.0000   168.0000 </r>
       <r>   -17.2793     0.0000   168.0000 </r>
       <r>   -17.0942     0.0000   168.0000 </r>
       <r>   -16.9090     0.0000   168.0000 </r>
       <r>   -16.7239     0.0000   168.0000 </r>
       <r>   -16.5388     0.0000   168.0000 </r>
       <r>   -16.3537     0.0000   168.0000 </r>
       <r>   -16.1685     0.0000   168.0000 </r>
       <r>   -15.9834     0.0000   168.0000 </r>
       <r>   -15.7983     0.0000   168.0000 </r>
       <r>   -15.6132     0.0000   168.0000 </r>
       <r>   -15.4280     0.0000   168.0000 </r>
       <r>   -15.2429     0.0000   168.0000 </r>
       <r>   -15.0578     0.0000   168.0000 </r>
       <r>   -14.8727     0.0000   168.0000 </r>
       <r>   -14.6876     0.0000   168.0000 </r>
       <r>   -14.5024     0.0000   168.0000 </r>
       <r>   -14.3173     0.0000   168.0000 </r>
       <r>   -14.1322     0.0000   168.0000 </r>
       <r>   -13.9471     0.0000   168.0000 </r>
       <r>   -13.7619     0.0000   168.0000 </r>
       <r>   -13.5768     0.0000   168.0000 </r>
       <r>   -13.3917     0.0000   172.0000 </r>
       <r>   -13.2066     0.0000   172.0000 </r>
       <r>   -13.0215     0.0000   172.0000 </r>
       <r>   -12.8363    44.3408   176.2787 </r>
       <r>   -12.6512   193.0369   194.7447 </r>
       <r>   -12.4661     0.0000   196.0000 </r>
       <r>   -12.2810     0.0000   196.0000 </r>
       <r>   -12.0958     0.0000   200.0000 </r>
       <r>   -11.9107     0.0000   200.0000 </r>
       <r>   -11.7256     0.0000   200.0000 </r>
       <r>   -11.5405     0.0000   200.0000 </r>
       <r>   -11.3553     0.0000   200.0000 </r>
       <r>   -11.1702     0.0000   200.0000 </r>
       <r>   -10.9851     0.0000   200.0000 </r>
       <r>   -10.8000     0.0000   200.0000 </r>
       <r>   -10.6149     0.0000   200.0000 </r>
       <r>   -10.4297     0.0000   200.0000 </r>
       <r>   -10.2446     0.0000   200.0000 </r>
       <r>   -10.0595     0.0000   200.0000 </r>
       <r>    -9.8744     0.0000   200.0000 </r>
       <r>    -9.6892     0.0000   200.0000 </r>
       <r>    -9.5041     0.0000   200.0000 </r>
       <r>    -9.3190     2.0965   200.0445 </r>
       <r>    -9.1339    27.6066   201.6134 </r>
       <r>    -8.9488     0.0000   204.0000 </r>
       <r>    -8.7636    11.5636   206.9189 </r>
       <r>    -8.5785    16.6927   208.9015 </r>
       <r>    -8.3934    39.9393   214.1874 </r>
       <r>    -8.2083    18.3769   216.5336 </r>
       <r>    -8.0231    22.6543   221.8049 </r>
       <r>    -7.8380    17.8250   225.5520 </r>
       <r>    -7.6529    22.5871   229.0377 </r>
       <r>    -7.4678     5.5457   231.8442 </r>
       <r>    -7.2826     0.0000   232.0000 </r>
       <r>    -7.0975     0.0000   232.0000 </r>
       <r>    -6.9124     0.0000   232.0000 </r>
       <r>    -6.7273     0.0000   232.0000 </r>
       <r>    -6.5422     0.0000   232.0000 </r>
       <r>    -6.3570     3.0536   232.0717 </r>
       <r>    -6.1719    18.9697   234.1097 </r>
       <r>    -5.9868    28.6674   239.1443 </r>
       <r>    -5.8017    30.8138   242.7579 </r>
       <r>    -5.6165    23.1824   247.6881 </r>
       <r>    -5.4314    20.1383   251.7085 </r>
       <r>    -5.2463    13.0838   254.9183 </r>
       <r>    -5.0612     1.7704   256.1041 </r>
       <r>    -4.8761     7.8185   257.0874 </r>
       <r>    -4.6909     9.8543   258.6736 </r>
       <r>    -4.5058     7.3982   260.6563 </r>
       <r>    -4.3207     6.9220   261.7421 </r>
       <r>    -4.1356     5.6806   263.0381 </r>
       <r>    -3.9504     2.1685   263.7626 </r>
       <r>    -3.7653     0.5253   263.9738 </r>
       <r>    -3.5802     0.0000   264.0000 </r>
       <r>    -3.3951     0.0000   264.0000 </r>
       <r>    -3.2099     0.0000   264.0000 </r>
       <r>    -3.0248     0.0000   264.0000 </r>
       <r>    -2.8397     0.0000   264.0000 </r>
       <r>    -2.6546     0.0000   264.0000 </r>
       <r>    -2.4695     0.0000   264.0000 </r>
       <r>    -2.2843     0.0000   264.0000 </r>
       <r>    -2.0992     0.0000   264.0000 </r>
       <r>    -1.9141     0.0000   264.0000 </r>
       <r>    -1.7290     0.0000   264.0000 </r>
       <r>    -1.5438     0.0226   264.0001 </r>
       <r>    -1.3587     2.3590   264.1782 </r>
       <r>    -1.1736    11.0482   265.5208 </r>
       <r>    -0.9885    16.5131   267.5419 </r>
       <r>    -0.8034     9.6154   269.9941 </r>
       <r>    -0.6182     5.0102   271.3250 </r>
       <r>    -0.4331    15.8346   272.8262 </r>
       <r>    -0.2480    25.9016   277.0854 </r>
       <r>    -0.0629    42.0149   283.7487 </r>
       <r>     0.1223    29.7980   291.0076 </r>
       <r>     0.3074    40.9239   296.8477 </r>
       <r>     0.4925    41.0339   304.0693 </r>
       <r>     0.6776    32.6992   311.9496 </r>
       <r>     0.8628    43.4493   317.6641 </r>
       <r>     1.0479    59.9946   326.3070 </r>
       <r>     1.2330    19.4564   335.3793 </r>
       <r>     1.4181    56.2757   343.7670 </r>
       <r>     1.6032    52.7585   355.4468 </r>
       <r>     1.7884    20.1599   362.7094 </r>
       <r>     1.9735    51.6350   368.7371 </r>
       <r>     2.1586    47.9129   376.3084 </r>
       <r>     2.3437    48.3707   385.3793 </r>
       <r>     2.5289    53.4274   395.5214 </r>
       <r>     2.7140    61.8635   406.0937 </r>
       <r>     2.8991    85.0505   418.1349 </r>
       <r>     3.0842    42.8679   430.9547 </r>
       <r>     3.2693    33.0317   437.8848 </r>
       <r>     3.4545    49.3822   446.2511 </r>
       <r>     3.6396    16.9517   450.3767 </r>
       <r>     3.8247    12.3650   453.7825 </r>
       <r>     4.0098     5.9110   455.4741 </r>
       <r>     4.1950     0.3101   455.9955 </r>
       <r>     4.3801     0.0000   456.0000 </r>
       <r>     4.5652     0.0000   456.0000 </r>
       <r>     4.7503     0.0000   456.0000 </r>
       <r>     4.9355     0.0000   456.0000 </r>
       <r>     5.1206     1.0707   456.0752 </r>
       <r>     5.3057     4.0338   456.4887 </r>
       <r>     5.4908     8.2163   457.6224 </r>
       <r>     5.6759     7.7791   459.4193 </r>
       <r>     5.8611    14.6848   463.5425 </r>
       <r>     6.0462    12.2811   466.0383 </r>
       <r>     6.2313    11.9232   468.2161 </r>
       <r>     6.4164    13.6689   470.5853 </r>
       <r>     6.6016    15.3924   473.2756 </r>
       <r>     6.7867    17.2700   476.2863 </r>
       <r>     6.9718    21.4367   479.8283 </r>
       <r>     7.1569    27.3895   484.3052 </r>
       <r>     7.3420    34.5765   490.6386 </r>
       <r>     7.5272    23.9451   497.7881 </r>
       <r>     7.7123    43.8939   503.7702 </r>
       <r>     7.8974    45.0858   513.2088 </r>
       <r>     8.0825    22.4864   519.2015 </r>
       <r>     8.2677    18.6573   522.7648 </r>
       <r>     8.4528    21.6058   526.4857 </r>
       <r>     8.6379    24.1956   530.7614 </r>
       <r>     8.8230    49.5655   538.0524 </r>
       <r>     9.0081    23.4456   544.1024 </r>
       <r>     9.1933    16.3272   547.7914 </r>
       <r>     9.3784    12.0964   550.2067 </r>
       <r>     9.5635    12.0369   553.0465 </r>
       <r>     9.7486    10.8466   555.2423 </r>
       <r>     9.9338     7.1745   556.6550 </r>
       <r>    10.1189    11.2587   558.4906 </r>
       <r>    10.3040     2.0686   559.9397 </r>
       <r>    10.4891     0.0000   560.0000 </r>
       <r>    10.6743     0.0000   560.0000 </r>
       <r>    10.8594     0.0000   560.0000 </r>
       <r>    11.0445     0.0000   560.0000 </r>
       <r>    11.2296     0.0000   560.0000 </r>
       <r>    11.4147     0.0000   560.0000 </r>
       <r>    11.5999     0.0000   560.0000 </r>
       <r>    11.7850     0.0000   560.0000 </r>
       <r>    11.9701     0.0000   560.0000 </r>
       <r>    12.1552     0.0000   560.0000 </r>
       <r>    12.3404     0.0000   560.0000 </r>
       <r>    12.5255     0.0000   560.0000 </r>
       <r>    12.7106     0.0000   560.0000 </r>
       <r>    12.8957     0.0000   560.0000 </r>
      </set>
     </set>
    </array>
   </total>
  </dos>
 </calculation>
 <structure name="finalpos" >
  <crystal>
   <varray name="basis" >
    <v>      11.17850000       0.00000000       0.00000000 </v>
    <v>       0.00000000       9.57460000       0.00000000 </v>
    <v>       0.00000000       0.00000000      11.18240000 </v>
   </varray>
   <i name="volume">   1196.84853820 </i>
   <varray name="rec_basis" >
    <v>       0.08945744       0.00000000       0.00000000 </v>
    <v>       0.00000000       0.10444301       0.00000000 </v>
    <v>       0.00000000       0.00000000       0.08942624 </v>
   </varray>
  </crystal>
  <varray name="positions" >
   <v>       0.12461000       0.99984000       0.18687000 </v>
   <v>       0.37461000       0.00017000       0.18687000 </v>
   <v>       0.12539000       0.99984000       0.93687000 </v>
   <v>       0.37539000       0.00017000       0.93687000 </v>
   <v>       0.37539000       0.00017000       0.43687000 </v>
   <v>       0.87539000       0.00017000       0.43687000 </v>
   <v>       0.62461000       0.99984000       0.18687000 </v>
   <v>       0.12461000       0.99984000       0.68687000 </v>
   <v>       0.87539000       0.00017000       0.93687000 </v>
   <v>       0.62461000       0.99984000       0.68687000 </v>
   <v>       0.00013000       0.29519000       0.06281000 </v>
   <v>       0.25013000       0.70481000       0.06281000 </v>
   <v>       0.24987000       0.29519000       0.31282000 </v>
   <v>       0.49987000       0.70481000       0.31282000 </v>
   <v>       0.50013000       0.29519000       0.06281000 </v>
   <v>       0.75013000       0.70481000       0.06281000 </v>
   <v>       0.74987000       0.29519000       0.31282000 </v>
   <v>       0.99987000       0.70481000       0.31282000 </v>
   <v>       0.00013000       0.29519000       0.56281000 </v>
   <v>       0.25013000       0.70481000       0.56281000 </v>
   <v>       0.24987000       0.29519000       0.81282000 </v>
   <v>       0.49987000       0.70481000       0.81282000 </v>
   <v>       0.50013000       0.29519000       0.56281000 </v>
   <v>       0.75013000       0.70481000       0.56281000 </v>
   <v>       0.74987000       0.29519000       0.81282000 </v>
   <v>       0.99987000       0.70481000       0.81282000 </v>
   <v>       0.25005000       0.32677000       0.06286000 </v>
   <v>       0.00005000       0.67323000       0.06286000 </v>
   <v>       0.49995000       0.32677000       0.31286000 </v>
   <v>       0.24995000       0.67323000       0.31286000 </v>
   <v>       0.75005000       0.32677000       0.06286000 </v>
   <v>       0.50005000       0.67323000       0.06286000 </v>
   <v>       0.99995000       0.32677000       0.31286000 </v>
   <v>       0.74995000       0.67323000       0.31286000 </v>
   <v>       0.25005000       0.32677000       0.56286000 </v>
   <v>       0.00005000       0.67323000       0.56286000 </v>
   <v>       0.49995000       0.32677000       0.81286000 </v>
   <v>       0.24995000       0.67323000       0.81286000 </v>
   <v>       0.75005000       0.32677000       0.56286000 </v>
   <v>       0.50005000       0.67323000       0.56286000 </v>
   <v>       0.99995000       0.32677000       0.81286000 </v>
   <v>       0.74995000       0.67323000       0.81286000 </v>
   <v>       0.49987000       0.07798000       0.06246000 </v>
   <v>       0.24987000       0.92202000       0.06246000 </v>
   <v>       0.25013000       0.07798000       0.31246000 </v>
   <v>       0.00013000       0.92202000       0.31246000 </v>
   <v>       0.99987000       0.07798000       0.06246000 </v>
   <v>       0.74987000       0.92202000       0.06246000 </v>
   <v>       0.75013000       0.07798000       0.31246000 </v>
   <v>       0.50013000       0.92202000       0.31246000 </v>
   <v>       0.49987000       0.07798000       0.56246000 </v>
   <v>       0.24987000       0.92202000       0.56246000 </v>
   <v>       0.25013000       0.07798000       0.81246000 </v>
   <v>       0.00013000       0.92202000       0.81246000 </v>
   <v>       0.99987000       0.07798000       0.56246000 </v>
   <v>       0.74987000       0.92202000       0.56246000 </v>
   <v>       0.75013000       0.07798000       0.81246000 </v>
   <v>       0.50013000       0.92202000       0.81246000 </v>
  </varray>
 </structure>
</modeling>
