<?xml version="1.0" encoding="ISO-8859-1"?>
<modeling>
 <generator>
  <i name="program" type="string">vasp </i>
  <i name="version" type="string">5.4.4.18Apr17-6-g9f103f2a35  </i>
  <i name="subversion" type="string">(build Jul 31 2017 11:33:29) complex            parallel </i>
  <i name="platform" type="string">LinuxIFC </i>
  <i name="date" type="string">2021 09 29 </i>
  <i name="time" type="string">13:59:05 </i>
 </generator>
 <incar>
  <i type="string" name="SYSTEM"> La2O2S</i>
  <i type="string" name="PREC">normal</i>
  <i type="int" name="NELMIN">     4</i>
  <i type="int" name="IBRION">     2</i>
  <i type="int" name="NFREE">    10</i>
  <i name="EDIFF">      0.00000100</i>
  <i name="EDIFFG">     -0.01000000</i>
  <i type="int" name="NSW">     1</i>
  <i type="int" name="ISIF">     2</i>
  <i name="ENCUT">    600.00000000</i>
  <i name="ENAUG">    900.00000000</i>
  <i type="int" name="ISMEAR">    -5</i>
  <i type="logical" name="LWAVE"> F  </i>
  <i type="logical" name="LCHARG"> F  </i>
  <v type="int" name="KPOINT_BSE">    -1     0     0     0</v>
 </incar>
 <structure name="primitive_cell" >
  <crystal>
   <varray name="basis" >
    <v>       5.58925000       0.00000000       0.00000000 </v>
    <v>       0.00000000       9.57460000       0.00000000 </v>
    <v>       0.00000000       0.00000000      11.18240000 </v>
   </varray>
   <i name="volume">    598.42426910 </i>
   <varray name="rec_basis" >
    <v>       0.17891488       0.00000000       0.00000000 </v>
    <v>       0.00000000       0.10444301       0.00000000 </v>
    <v>       0.00000000       0.00000000       0.08942624 </v>
   </varray>
  </crystal>
  <varray name="positions" >
   <v>       0.25078000      -0.00016000      -0.06313000 </v>
   <v>      -0.49974000       0.07798000      -0.18754000 </v>
   <v>       0.00026000      -0.07798000      -0.18754000 </v>
   <v>       0.49974000      -0.07798000       0.06246000 </v>
   <v>      -0.00026000       0.07798000       0.06246000 </v>
   <v>      -0.24922000       0.00017000      -0.06313000 </v>
   <v>       0.24922000      -0.00016000      -0.31313000 </v>
   <v>       0.49974000       0.29519000      -0.18718000 </v>
   <v>      -0.00026000      -0.29519000      -0.18718000 </v>
   <v>      -0.49974000      -0.29519000       0.06281000 </v>
   <v>       0.00026000       0.29519000       0.06281000 </v>
   <v>       0.49990000      -0.32677000      -0.18714000 </v>
   <v>      -0.00010000       0.32677000      -0.18714000 </v>
   <v>      -0.49990000       0.32677000       0.06286000 </v>
   <v>       0.00010000      -0.32677000       0.06286000 </v>
   <v>      -0.25078000       0.00017000       0.18687000 </v>
   <v>       0.49974000      -0.07798000      -0.43754000 </v>
   <v>      -0.00026000       0.07798000      -0.43754000 </v>
   <v>      -0.49974000       0.07798000       0.31246000 </v>
   <v>       0.00026000      -0.07798000       0.31246000 </v>
   <v>      -0.49974000      -0.29519000      -0.43719000 </v>
   <v>       0.00026000       0.29519000      -0.43719000 </v>
   <v>       0.49974000       0.29519000       0.31282000 </v>
   <v>      -0.00026000      -0.29519000       0.31282000 </v>
   <v>      -0.49990000       0.32677000      -0.43714000 </v>
   <v>       0.00010000      -0.32677000      -0.43714000 </v>
   <v>       0.49990000      -0.32677000       0.31286000 </v>
   <v>      -0.00010000       0.32677000       0.31286000 </v>
   <v>      -0.24922000       0.00017000       0.43687000 </v>
  </varray>
 </structure>
 <varray name="primitive_index" >
  <v type="int" >        1 </v>
  <v type="int" >       53 </v>
  <v type="int" >       54 </v>
  <v type="int" >       44 </v>
  <v type="int" >       47 </v>
  <v type="int" >        2 </v>
  <v type="int" >        9 </v>
  <v type="int" >       21 </v>
  <v type="int" >       26 </v>
  <v type="int" >       12 </v>
  <v type="int" >       11 </v>
  <v type="int" >       38 </v>
  <v type="int" >       41 </v>
  <v type="int" >       27 </v>
  <v type="int" >       28 </v>
  <v type="int" >        6 </v>
  <v type="int" >       52 </v>
  <v type="int" >       55 </v>
  <v type="int" >       45 </v>
  <v type="int" >       46 </v>
  <v type="int" >       20 </v>
  <v type="int" >       19 </v>
  <v type="int" >       13 </v>
  <v type="int" >       18 </v>
  <v type="int" >       35 </v>
  <v type="int" >       36 </v>
  <v type="int" >       30 </v>
  <v type="int" >       33 </v>
  <v type="int" >        5 </v>
 </varray>
 <kpoints>
  <generation param="Gamma">
   <v type="int" name="divisions">       2        2        2 </v>
   <v name="usershift">      0.00000000       0.00000000       0.00000000 </v>
   <v name="genvec1">      0.50000000       0.00000000       0.00000000 </v>
   <v name="genvec2">      0.00000000       0.50000000       0.00000000 </v>
   <v name="genvec3">      0.00000000       0.00000000       0.50000000 </v>
   <v name="shift">      0.00000000       0.00000000       0.00000000 </v>
  </generation>
  <varray name="kpointlist" >
   <v>       0.00000000       0.00000000       0.00000000 </v>
   <v>       0.50000000       0.00000000       0.00000000 </v>
   <v>       0.00000000       0.50000000       0.00000000 </v>
   <v>       0.50000000       0.50000000       0.00000000 </v>
   <v>       0.00000000       0.00000000       0.50000000 </v>
   <v>       0.50000000       0.00000000       0.50000000 </v>
   <v>       0.00000000       0.50000000       0.50000000 </v>
   <v>       0.50000000       0.50000000       0.50000000 </v>
  </varray>
  <varray name="weights" >
   <v>       0.12500000 </v>
   <v>       0.12500000 </v>
   <v>       0.12500000 </v>
   <v>       0.12500000 </v>
   <v>       0.12500000 </v>
   <v>       0.12500000 </v>
   <v>       0.12500000 </v>
   <v>       0.12500000 </v>
  </varray>
  <varray name="tetrahedronlist"  type="int" >
   <v type="int" >        2        1        2        4        5 </v>
   <v type="int" >        2        1        3        4        5 </v>
   <v type="int" >        2        3        4        5        7 </v>
   <v type="int" >        2        2        4        5        6 </v>
   <v type="int" >        2        4        5        6        8 </v>
   <v type="int" >        2        4        5        7        8 </v>
   <v type="int" >        2        1        2        3        6 </v>
   <v type="int" >        2        2        3        4        6 </v>
   <v type="int" >        2        3        4        6        8 </v>
   <v type="int" >        2        1        3        5        6 </v>
   <v type="int" >        2        3        5        6        7 </v>
   <v type="int" >        2        3        6        7        8 </v>
   <v type="int" >        2        2        3        4        7 </v>
   <v type="int" >        2        1        2        3        7 </v>
   <v type="int" >        2        1        2        5        7 </v>
   <v type="int" >        2        2        4        7        8 </v>
   <v type="int" >        2        2        6        7        8 </v>
   <v type="int" >        2        2        5        6        7 </v>
   <v type="int" >        2        1        3        4        8 </v>
   <v type="int" >        2        1        2        4        8 </v>
   <v type="int" >        2        1        2        6        8 </v>
   <v type="int" >        2        1        3        7        8 </v>
   <v type="int" >        2        1        5        7        8 </v>
   <v type="int" >        2        1        5        6        8 </v>
  </varray>
  <i name="volumeweight">      0.02083333 </i>
 </kpoints>
 <parameters>
  <separator name="general" >
   <i type="string" name="SYSTEM">La2O2S</i>
   <i type="logical" name="LCOMPAT"> F  </i>
  </separator>
  <separator name="electronic" >
   <i type="string" name="PREC">normal</i>
   <i name="ENMAX">    600.00000000</i>
   <i name="ENAUG">    900.00000000</i>
   <i name="EDIFF">      0.00000100</i>
   <i type="int" name="IALGO">    38</i>
   <i type="int" name="IWAVPR">    11</i>
   <i type="int" name="NBANDS">   280</i>
   <i name="NELECT">    456.00000000</i>
   <i type="int" name="TURBO">     0</i>
   <i type="int" name="IRESTART">     0</i>
   <i type="int" name="NREBOOT">     0</i>
   <i type="int" name="NMIN">     0</i>
   <i name="EREF">      0.00000000</i>
   <separator name="electronic smearing" >
    <i type="int" name="ISMEAR">    -5</i>
    <i name="SIGMA">      0.20000000</i>
    <i name="KSPACING">      0.50000000</i>
    <i type="logical" name="KGAMMA"> T  </i>
   </separator>
   <separator name="electronic projectors" >
    <i type="logical" name="LREAL"> F  </i>
    <v name="ROPT">      0.00000000      0.00000000      0.00000000      0.00000000      0.00000000</v>
    <i type="int" name="LMAXPAW">  -100</i>
    <i type="int" name="LMAXMIX">     2</i>
    <i type="logical" name="NLSPLINE"> F  </i>
   </separator>
   <separator name="electronic startup" >
    <i type="int" name="ISTART">     0</i>
    <i type="int" name="ICHARG">     2</i>
    <i type="int" name="INIWAV">     1</i>
   </separator>
   <separator name="electronic spin" >
    <i type="int" name="ISPIN">     1</i>
    <i type="logical" name="LNONCOLLINEAR"> F  </i>
    <v name="MAGMOM">      1.00000000      1.00000000      1.00000000      1.00000000      1.00000000      1.00000000      1.00000000      1.00000000      1.00000000      1.00000000      1.00000000      1.00000000      1.00000000      1.00000000      1.00000000      1.00000000      1.00000000      1.00000000      1.00000000      1.00000000
      1.00000000      1.00000000      1.00000000      1.00000000      1.00000000      1.00000000      1.00000000      1.00000000      1.00000000      1.00000000      1.00000000      1.00000000      1.00000000      1.00000000      1.00000000      1.00000000      1.00000000      1.00000000      1.00000000      1.00000000
      1.00000000      1.00000000      1.00000000      1.00000000      1.00000000      1.00000000      1.00000000      1.00000000      1.00000000      1.00000000      1.00000000      1.00000000      1.00000000      1.00000000      1.00000000      1.00000000      1.00000000      1.00000000</v>
    <i name="NUPDOWN">     -1.00000000</i>
    <i type="logical" name="LSORBIT"> F  </i>
    <v name="SAXIS">      0.00000000      0.00000000      1.00000000</v>
    <i type="logical" name="LSPIRAL"> F  </i>
    <v name="QSPIRAL">      0.00000000      0.00000000      0.00000000</v>
    <i type="logical" name="LZEROZ"> F  </i>
   </separator>
   <separator name="electronic exchange-correlation" >
    <i type="logical" name="LASPH"> F  </i>
    <i type="logical" name="LMETAGGA"> F  </i>
   </separator>
   <separator name="electronic convergence" >
    <i type="int" name="NELM">    60</i>
    <i type="int" name="NELMDL">    -5</i>
    <i type="int" name="NELMIN">     4</i>
    <i name="ENINI">    600.00000000</i>
    <separator name="electronic convergence detail" >
     <i type="logical" name="LDIAG"> T  </i>
     <i type="logical" name="LSUBROT"> F  </i>
     <i name="WEIMIN">      0.00100000</i>
     <i name="EBREAK">      0.00000000</i>
     <i name="DEPER">      0.30000000</i>
     <i type="int" name="NRMM">     4</i>
     <i name="TIME">      0.40000000</i>
    </separator>
   </separator>
   <separator name="electronic mixer" >
    <i name="AMIX">      0.40000000</i>
    <i name="BMIX">      1.00000000</i>
    <i name="AMIN">      0.10000000</i>
    <i name="AMIX_MAG">      1.60000000</i>
    <i name="BMIX_MAG">      1.00000000</i>
    <separator name="electronic mixer details" >
     <i type="int" name="IMIX">     4</i>
     <i type="logical" name="MIXFIRST"> F  </i>
     <i type="int" name="MAXMIX">   -45</i>
     <i name="WC">    100.00000000</i>
     <i type="int" name="INIMIX">     1</i>
     <i type="int" name="MIXPRE">     1</i>
     <i type="int" name="MREMOVE">     5</i>
    </separator>
   </separator>
   <separator name="electronic dipolcorrection" >
    <i type="logical" name="LDIPOL"> F  </i>
    <i type="logical" name="LMONO"> F  </i>
    <i type="int" name="IDIPOL">     0</i>
    <i name="EPSILON">      1.00000000</i>
    <v name="DIPOL">   -100.00000000   -100.00000000   -100.00000000</v>
    <i name="EFIELD">      0.00000000</i>
   </separator>
  </separator>
  <separator name="grids" >
   <i type="int" name="NGX">    70</i>
   <i type="int" name="NGY">    60</i>
   <i type="int" name="NGZ">    70</i>
   <i type="int" name="NGXF">   140</i>
   <i type="int" name="NGYF">   120</i>
   <i type="int" name="NGZF">   140</i>
   <i type="logical" name="ADDGRID"> F  </i>
  </separator>
  <separator name="ionic" >
   <i type="int" name="NSW">     1</i>
   <i type="int" name="IBRION">     2</i>
   <i type="int" name="MDALGO">     0</i>
   <i type="int" name="ISIF">     2</i>
   <i name="PSTRESS">      0.00000000</i>
   <i name="EDIFFG">     -0.01000000</i>
   <i type="int" name="NFREE">    10</i>
   <i name="POTIM">      0.50000000</i>
   <i name="SMASS">     -3.00000000</i>
   <i name="SCALEE">      1.00000000</i>
  </separator>
  <separator name="ionic md" >
   <i name="TEBEG">      0.00010000</i>
   <i name="TEEND">      0.00010000</i>
   <i type="int" name="NBLOCK">     1</i>
   <i type="int" name="KBLOCK">     1</i>
   <i type="int" name="NPACO">   256</i>
   <i name="APACO">     16.00000000</i>
  </separator>
  <separator name="symmetry" >
   <i type="int" name="ISYM">     2</i>
   <i name="SYMPREC">      0.00001000</i>
  </separator>
  <separator name="dos" >
   <i type="int" name="LORBIT">     0</i>
   <v name="RWIGS">     -1.00000000     -1.00000000     -1.00000000     -1.00000000     -1.00000000</v>
   <i type="int" name="NEDOS">   301</i>
   <i name="EMIN">     10.00000000</i>
   <i name="EMAX">    -10.00000000</i>
   <i name="EFERMI">      0.00000000</i>
  </separator>
  <separator name="writing" >
   <i type="int" name="NWRITE">     2</i>
   <i type="logical" name="LWAVE"> F  </i>
   <i type="logical" name="LDOWNSAMPLE"> F  </i>
   <i type="logical" name="LCHARG"> F  </i>
   <i type="logical" name="LPARD"> F  </i>
   <i type="logical" name="LVTOT"> F  </i>
   <i type="logical" name="LVHAR"> F  </i>
   <i type="logical" name="LELF"> F  </i>
   <i type="logical" name="LOPTICS"> F  </i>
   <v name="STM">      0.00000000      0.00000000      0.00000000      0.00000000      0.00000000      0.00000000      0.00000000</v>
  </separator>
  <separator name="performance" >
   <i type="int" name="NPAR">    28</i>
   <i type="int" name="NSIM">     4</i>
   <i type="int" name="NBLK">    -1</i>
   <i type="logical" name="LPLANE"> T  </i>
   <i type="logical" name="LSCALAPACK"> T  </i>
   <i type="logical" name="LSCAAWARE"> F  </i>
   <i type="logical" name="LSCALU"> F  </i>
   <i type="logical" name="LASYNC"> F  </i>
   <i type="logical" name="LORBITALREAL"> F  </i>
  </separator>
  <separator name="miscellaneous" >
   <i type="int" name="IDIOT">     3</i>
   <i type="int" name="ISPECIAL">     0</i>
   <i type="logical" name="LMUSIC"> F  </i>
   <v name="POMASS">      7.01000000     24.30500000    208.98000000     32.06600000     16.00000000</v>
   <v name="DARWINR">      0.00000000      0.00000000      0.00000000      0.00000000      0.00000000</v>
   <v name="DARWINV">      1.00000000      1.00000000      1.00000000      1.00000000      1.00000000</v>
   <i type="logical" name="LCORR"> T  </i>
  </separator>
  <i type="logical" name="GGA_COMPAT"> T  </i>
  <i type="logical" name="LBERRY"> F  </i>
  <i type="int" name="ICORELEVEL">     0</i>
  <i type="logical" name="LDAU"> F  </i>
  <i type="int" name="I_CONSTRAINED_M">     0</i>
  <separator name="electronic exchange-correlation" >
   <i type="string" name="GGA">--</i>
   <i type="int" name="VOSKOWN">     0</i>
   <i type="logical" name="LHFCALC"> F  </i>
   <i type="string" name="PRECFOCK"></i>
   <i type="logical" name="LSYMGRAD"> F  </i>
   <i type="logical" name="LHFONE"> F  </i>
   <i type="logical" name="LRHFCALC"> F  </i>
   <i type="logical" name="LTHOMAS"> F  </i>
   <i type="logical" name="LMODELHF"> F  </i>
   <i name="ENCUT4O">     -1.00000000</i>
   <i type="int" name="EXXOEP">     0</i>
   <i type="int" name="FOURORBIT">     0</i>
   <i name="AEXX">      0.00000000</i>
   <i name="HFALPHA">      0.00000000</i>
   <i name="MCALPHA">      0.00000000</i>
   <i name="ALDAX">      1.00000000</i>
   <i name="AGGAX">      1.00000000</i>
   <i name="ALDAC">      1.00000000</i>
   <i name="AGGAC">      1.00000000</i>
   <i type="int" name="NKREDX">     1</i>
   <i type="int" name="NKREDY">     1</i>
   <i type="int" name="NKREDZ">     1</i>
   <i type="logical" name="SHIFTRED"> F  </i>
   <i type="logical" name="ODDONLY"> F  </i>
   <i type="logical" name="EVENONLY"> F  </i>
   <i type="int" name="LMAXFOCK">     0</i>
   <i type="int" name="NMAXFOCKAE">     0</i>
   <i type="logical" name="LFOCKAEDFT"> F  </i>
   <i name="HFSCREEN">      0.00000000</i>
   <i name="HFSCREENC">      0.00000000</i>
   <i type="int" name="NBANDSGWLOW">     0</i>
  </separator>
  <separator name="vdW DFT" >
   <i type="logical" name="LUSE_VDW"> F  </i>
   <i name="Zab_VDW">     -0.84910000</i>
   <i name="PARAM1">      0.12340000</i>
   <i name="PARAM2">      1.00000000</i>
   <i name="PARAM3">      0.00000000</i>
  </separator>
  <separator name="model GW" >
   <i type="int" name="MODEL_GW">     0</i>
   <i name="MODEL_EPS0">     12.38119177</i>
   <i name="MODEL_ALPHA">      1.00000000</i>
  </separator>
  <separator name="linear response parameters" >
   <i type="logical" name="LEPSILON"> F  </i>
   <i type="logical" name="LRPA"> F  </i>
   <i type="logical" name="LNABLA"> F  </i>
   <i type="logical" name="LVEL"> F  </i>
   <i type="int" name="KINTER">     0</i>
   <i name="CSHIFT">      0.10000000</i>
   <i name="OMEGAMAX">     -1.00000000</i>
   <i name="DEG_THRESHOLD">      0.00200000</i>
   <i name="RTIME">     -0.10000000</i>
   <i name="WPLASMAI">      0.00000000</i>
   <v name="DFIELD">      0.00000000      0.00000000      0.00000000</v>
   <v name="WPLASMA">      0.00000000      0.00000000      0.00000000      0.00000000      0.00000000      0.00000000      0.00000000      0.00000000      0.00000000</v>
  </separator>
  <separator name="orbital magnetization" >
   <i type="logical" name="NUCIND"> F  </i>
   <v name="MAGPOS">      0.00000000      0.00000000      0.00000000</v>
   <i type="logical" name="LNICSALL"> T  </i>
   <i type="logical" name="ORBITALMAG"> F  </i>
   <i type="logical" name="LMAGBLOCH"> F  </i>
   <i type="logical" name="LCHIMAG"> F  </i>
   <i type="logical" name="LGAUGE"> T  </i>
   <i type="int" name="MAGATOM">     0</i>
   <v name="MAGDIPOL">      0.00000000      0.00000000      0.00000000</v>
   <v name="AVECCONST">      0.00000000      0.00000000      0.00000000</v>
  </separator>
  <separator name="response functions" >
   <i type="logical" name="LADDER"> F  </i>
   <i type="logical" name="LRPAFORCE"> F  </i>
   <i type="logical" name="LFXC"> F  </i>
   <i type="logical" name="LHARTREE"> T  </i>
   <i type="int" name="IBSE">     0</i>
   <v type="int" name="KPOINT">    -1     0     0     0</v>
   <i type="logical" name="LTCTE"> F  </i>
   <i type="logical" name="LTETE"> F  </i>
   <i type="logical" name="LTRIPLET"> F  </i>
   <i type="logical" name="LFXCEPS"> F  </i>
   <i type="logical" name="LFXHEG"> F  </i>
   <i type="int" name="NATURALO">     2</i>
   <i type="logical" name="L2ORDER"> F  </i>
   <i type="logical" name="LMP2LT"> F  </i>
   <i type="logical" name="LUSEW"> F  </i>
   <i name="ENCUTGW">     -2.00000000</i>
   <i name="ENCUTGWSOFT">     -2.00000000</i>
   <i name="ENCUTLF">     -1.00000000</i>
   <i type="int" name="LMAXMP2">    -1</i>
   <i name="SCISSOR">      0.00000000</i>
   <i type="int" name="NOMEGA">     0</i>
   <i type="int" name="NOMEGAR">     0</i>
   <i type="int" name="NBANDSGW">    -1</i>
   <i type="int" name="NBANDSO">    -1</i>
   <i type="int" name="NBANDSV">    -1</i>
   <i type="int" name="NELM">     1</i>
   <i type="int" name="NELMHF">     1</i>
   <i type="int" name="DIM">     3</i>
   <i type="int" name="ANTIRES">     0</i>
   <i name="OMEGAMAX">    -30.00000000</i>
   <i name="OMEGAMIN">    -30.00000000</i>
   <i name="OMEGATL">   -200.00000000</i>
   <i type="int" name="OMEGAGRID">   140</i>
   <i name="CSHIFT">     -0.10000000</i>
   <i type="logical" name="SELFENERGY"> F  </i>
   <i type="logical" name="LSPECTRAL"> F  </i>
   <i type="logical" name="LSPECTRALGW"> F  </i>
   <i type="logical" name="LSINGLES"> F  </i>
   <i type="logical" name="LFERMIGW"> F  </i>
   <i type="logical" name="ODDONLYGW"> F  </i>
   <i type="logical" name="EVENONLYGW"> F  </i>
   <i type="int" name="NKREDLFX">     1</i>
   <i type="int" name="NKREDLFY">     1</i>
   <i type="int" name="NKREDLFZ">     1</i>
   <i type="int" name="MAXMEM">  2800</i>
   <i type="int" name="TELESCOPE">     0</i>
   <i type="int" name="TAUPAR">     1</i>
   <i type="int" name="OMEGAPAR">    -1</i>
   <i name="LAMBDA">      1.00000000</i>
  </separator>
  <separator name="External order field" >
   <i name="OFIELD_KAPPA">      0.00000000</i>
   <v name="OFIELD_K">      0.00000000      0.00000000      0.00000000</v>
   <i name="OFIELD_Q6_NEAR">      0.00000000</i>
   <i name="OFIELD_Q6_FAR">      0.00000000</i>
   <i name="OFIELD_A">      0.00000000</i>
  </separator>
 </parameters>
 <atominfo>
  <atoms>      58 </atoms>
  <types>       5 </types>
  <array name="atoms" >
   <dimension dim="1">ion</dimension>
   <field type="string">element</field>
   <field type="int">atomtype</field>
   <set>
    <rc><c>Li</c><c>   1</c></rc>
    <rc><c>Li</c><c>   1</c></rc>
    <rc><c>Li</c><c>   1</c></rc>
    <rc><c>Li</c><c>   1</c></rc>
    <rc><c>Mg</c><c>   2</c></rc>
    <rc><c>Mg</c><c>   2</c></rc>
    <rc><c>Mg</c><c>   2</c></rc>
    <rc><c>Mg</c><c>   2</c></rc>
    <rc><c>Mg</c><c>   2</c></rc>
    <rc><c>Mg</c><c>   2</c></rc>
    <rc><c>Bi</c><c>   3</c></rc>
    <rc><c>Bi</c><c>   3</c></rc>
    <rc><c>Bi</c><c>   3</c></rc>
    <rc><c>Bi</c><c>   3</c></rc>
    <rc><c>Bi</c><c>   3</c></rc>
    <rc><c>Bi</c><c>   3</c></rc>
    <rc><c>Bi</c><c>   3</c></rc>
    <rc><c>Bi</c><c>   3</c></rc>
    <rc><c>Bi</c><c>   3</c></rc>
    <rc><c>Bi</c><c>   3</c></rc>
    <rc><c>Bi</c><c>   3</c></rc>
    <rc><c>Bi</c><c>   3</c></rc>
    <rc><c>Bi</c><c>   3</c></rc>
    <rc><c>Bi</c><c>   3</c></rc>
    <rc><c>Bi</c><c>   3</c></rc>
    <rc><c>Bi</c><c>   3</c></rc>
    <rc><c>S </c><c>   4</c></rc>
    <rc><c>S </c><c>   4</c></rc>
    <rc><c>S </c><c>   4</c></rc>
    <rc><c>S </c><c>   4</c></rc>
    <rc><c>S </c><c>   4</c></rc>
    <rc><c>S </c><c>   4</c></rc>
    <rc><c>S </c><c>   4</c></rc>
    <rc><c>S </c><c>   4</c></rc>
    <rc><c>S </c><c>   4</c></rc>
    <rc><c>S </c><c>   4</c></rc>
    <rc><c>S </c><c>   4</c></rc>
    <rc><c>S </c><c>   4</c></rc>
    <rc><c>S </c><c>   4</c></rc>
    <rc><c>S </c><c>   4</c></rc>
    <rc><c>S </c><c>   4</c></rc>
    <rc><c>S </c><c>   4</c></rc>
    <rc><c>O </c><c>   5</c></rc>
    <rc><c>O </c><c>   5</c></rc>
    <rc><c>O </c><c>   5</c></rc>
    <rc><c>O </c><c>   5</c></rc>
    <rc><c>O </c><c>   5</c></rc>
    <rc><c>O </c><c>   5</c></rc>
    <rc><c>O </c><c>   5</c></rc>
    <rc><c>O </c><c>   5</c></rc>
    <rc><c>O </c><c>   5</c></rc>
    <rc><c>O </c><c>   5</c></rc>
    <rc><c>O </c><c>   5</c></rc>
    <rc><c>O </c><c>   5</c></rc>
    <rc><c>O </c><c>   5</c></rc>
    <rc><c>O </c><c>   5</c></rc>
    <rc><c>O </c><c>   5</c></rc>
    <rc><c>O </c><c>   5</c></rc>
   </set>
  </array>
  <array name="atomtypes" >
   <dimension dim="1">type</dimension>
   <field type="int">atomspertype</field>
   <field type="string">element</field>
   <field>mass</field>
   <field>valence</field>
   <field type="string">pseudopotential</field>
   <set>
    <rc><c>   4</c><c>Li</c><c>      7.01000000</c><c>      3.00000000</c><c>  PAW_PBE Li_sv 10Sep2004               </c></rc>
    <rc><c>   6</c><c>Mg</c><c>     24.30500000</c><c>      2.00000000</c><c>  PAW_PBE Mg 13Apr2007                  </c></rc>
    <rc><c>  16</c><c>Bi</c><c>    208.98000000</c><c>     15.00000000</c><c>  PAW_PBE Bi_d 06Sep2000                </c></rc>
    <rc><c>  16</c><c>S </c><c>     32.06600000</c><c>      6.00000000</c><c>  PAW_PBE S 06Sep2000                   </c></rc>
    <rc><c>  16</c><c>O </c><c>     16.00000000</c><c>      6.00000000</c><c>  PAW_PBE O 08Apr2002                   </c></rc>
   </set>
  </array>
 </atominfo>
 <structure name="initialpos" >
  <crystal>
   <varray name="basis" >
    <v>      11.17850000       0.00000000       0.00000000 </v>
    <v>       0.00000000       9.57460000       0.00000000 </v>
    <v>       0.00000000       0.00000000      11.18240000 </v>
   </varray>
   <i name="volume">   1196.84853820 </i>
   <varray name="rec_basis" >
    <v>       0.08945744       0.00000000       0.00000000 </v>
    <v>       0.00000000       0.10444301       0.00000000 </v>
    <v>       0.00000000       0.00000000       0.08942624 </v>
   </varray>
  </crystal>
  <varray name="positions" >
   <v>       0.12539000       0.99984000       0.93687000 </v>
   <v>       0.37539000       0.00017000       0.93687000 </v>
   <v>       0.62539000       0.99984000       0.93687000 </v>
   <v>       0.87539000       0.00017000       0.93687000 </v>
   <v>       0.37539000       0.00017000       0.43687000 </v>
   <v>       0.37461000       0.00017000       0.18687000 </v>
   <v>       0.87539000       0.00017000       0.43687000 </v>
   <v>       0.87461000       0.00017000       0.18687000 </v>
   <v>       0.12461000       0.99984000       0.68687000 </v>
   <v>       0.62461000       0.99984000       0.68687000 </v>
   <v>       0.00013000       0.29519000       0.06281000 </v>
   <v>       0.25013000       0.70481000       0.06281000 </v>
   <v>       0.24987000       0.29519000       0.31282000 </v>
   <v>       0.49987000       0.70481000       0.31282000 </v>
   <v>       0.50013000       0.29519000       0.06281000 </v>
   <v>       0.75013000       0.70481000       0.06281000 </v>
   <v>       0.74987000       0.29519000       0.31282000 </v>
   <v>       0.99987000       0.70481000       0.31282000 </v>
   <v>       0.00013000       0.29519000       0.56281000 </v>
   <v>       0.25013000       0.70481000       0.56281000 </v>
   <v>       0.24987000       0.29519000       0.81282000 </v>
   <v>       0.49987000       0.70481000       0.81282000 </v>
   <v>       0.50013000       0.29519000       0.56281000 </v>
   <v>       0.75013000       0.70481000       0.56281000 </v>
   <v>       0.74987000       0.29519000       0.81282000 </v>
   <v>       0.99987000       0.70481000       0.81282000 </v>
   <v>       0.25005000       0.32677000       0.06286000 </v>
   <v>       0.00005000       0.67323000       0.06286000 </v>
   <v>       0.49995000       0.32677000       0.31286000 </v>
   <v>       0.24995000       0.67323000       0.31286000 </v>
   <v>       0.75005000       0.32677000       0.06286000 </v>
   <v>       0.50005000       0.67323000       0.06286000 </v>
   <v>       0.99995000       0.32677000       0.31286000 </v>
   <v>       0.74995000       0.67323000       0.31286000 </v>
   <v>       0.25005000       0.32677000       0.56286000 </v>
   <v>       0.00005000       0.67323000       0.56286000 </v>
   <v>       0.49995000       0.32677000       0.81286000 </v>
   <v>       0.24995000       0.67323000       0.81286000 </v>
   <v>       0.75005000       0.32677000       0.56286000 </v>
   <v>       0.50005000       0.67323000       0.56286000 </v>
   <v>       0.99995000       0.32677000       0.81286000 </v>
   <v>       0.74995000       0.67323000       0.81286000 </v>
   <v>       0.49987000       0.07798000       0.06246000 </v>
   <v>       0.24987000       0.92202000       0.06246000 </v>
   <v>       0.25013000       0.07798000       0.31246000 </v>
   <v>       0.00013000       0.92202000       0.31246000 </v>
   <v>       0.99987000       0.07798000       0.06246000 </v>
   <v>       0.74987000       0.92202000       0.06246000 </v>
   <v>       0.75013000       0.07798000       0.31246000 </v>
   <v>       0.50013000       0.92202000       0.31246000 </v>
   <v>       0.49987000       0.07798000       0.56246000 </v>
   <v>       0.24987000       0.92202000       0.56246000 </v>
   <v>       0.25013000       0.07798000       0.81246000 </v>
   <v>       0.00013000       0.92202000       0.81246000 </v>
   <v>       0.99987000       0.07798000       0.56246000 </v>
   <v>       0.74987000       0.92202000       0.56246000 </v>
   <v>       0.75013000       0.07798000       0.81246000 </v>
   <v>       0.50013000       0.92202000       0.81246000 </v>
  </varray>
 </structure>
 <calculation>
  <scstep>
   <time name="dav">   60.61   61.06</time>
   <time name="total">   60.69   61.15</time>
   <energy>
    <i name="alphaZ">   1054.17224280 </i>
    <i name="ewald"> -30164.63512712 </i>
    <i name="hartreedc"> -12718.30637547 </i>
    <i name="XCdc">   1173.32978601 </i>
    <i name="pawpsdc">  36541.05238669 </i>
    <i name="pawaedc"> -35795.85877930 </i>
    <i name="eentropy">      0.00000000 </i>
    <i name="bandstr">   1908.93086361 </i>
    <i name="atom">  43643.51795008 </i>
    <i name="e_fr_energy">   5642.20294730 </i>
    <i name="e_wo_entrp">   5642.20294730 </i>
    <i name="e_0_energy">   5642.20294730 </i>
   </energy>
  </scstep>
  <scstep>
   <time name="dav">   62.05   62.57</time>
   <time name="total">   62.06   62.58</time>
   <energy>
    <i name="e_fr_energy">    726.93966665 </i>
    <i name="e_wo_entrp">    726.93966665 </i>
    <i name="e_0_energy">    726.93966665 </i>
   </energy>
  </scstep>
  <scstep>
   <time name="dav">   71.53   71.93</time>
   <time name="total">   71.54   71.93</time>
   <energy>
    <i name="e_fr_energy">   -248.13351430 </i>
    <i name="e_wo_entrp">   -248.13351430 </i>
    <i name="e_0_energy">   -248.13351430 </i>
   </energy>
  </scstep>
  <scstep>
   <time name="dav">   72.31   72.70</time>
   <time name="total">   72.31   72.70</time>
   <energy>
    <i name="e_fr_energy">   -331.94085916 </i>
    <i name="e_wo_entrp">   -331.94085916 </i>
    <i name="e_0_energy">   -331.94085916 </i>
   </energy>
  </scstep>
  <scstep>
   <time name="dav">   94.22   95.08</time>
   <time name="total">   94.95   95.81</time>
   <energy>
    <i name="e_fr_energy">   -338.16552047 </i>
    <i name="e_wo_entrp">   -338.16552047 </i>
    <i name="e_0_energy">   -338.16552047 </i>
   </energy>
  </scstep>
  <scstep>
   <time name="dav">   86.50   87.49</time>
   <time name="total">   87.28   88.28</time>
   <energy>
    <i name="e_fr_energy">   -284.56502477 </i>
    <i name="e_wo_entrp">   -284.56502477 </i>
    <i name="e_0_energy">   -284.56502477 </i>
   </energy>
  </scstep>
  <scstep>
   <time name="dav">   65.70   66.37</time>
   <time name="total">   66.49   67.17</time>
   <energy>
    <i name="e_fr_energy">   -286.74314116 </i>
    <i name="e_wo_entrp">   -286.74314116 </i>
    <i name="e_0_energy">   -286.74314116 </i>
   </energy>
  </scstep>
  <scstep>
   <time name="dav">   77.56   78.31</time>
   <time name="total">   78.36   79.12</time>
   <energy>
    <i name="e_fr_energy">   -285.91121507 </i>
    <i name="e_wo_entrp">   -285.91121507 </i>
    <i name="e_0_energy">   -285.91121507 </i>
   </energy>
  </scstep>
  <scstep>
   <time name="dav">   84.36   84.93</time>
   <time name="total">   85.15   85.72</time>
   <energy>
    <i name="e_fr_energy">   -285.48297337 </i>
    <i name="e_wo_entrp">   -285.48297337 </i>
    <i name="e_0_energy">   -285.48297337 </i>
   </energy>
  </scstep>
  <scstep>
   <time name="dav">   74.01   74.55</time>
   <time name="total">   74.79   75.35</time>
   <energy>
    <i name="e_fr_energy">   -285.48929785 </i>
    <i name="e_wo_entrp">   -285.48929785 </i>
    <i name="e_0_energy">   -285.48929785 </i>
   </energy>
  </scstep>
  <scstep>
   <time name="dav">   82.13   82.76</time>
   <time name="total">   82.90   83.55</time>
   <energy>
    <i name="e_fr_energy">   -285.49789123 </i>
    <i name="e_wo_entrp">   -285.49789123 </i>
    <i name="e_0_energy">   -285.49789123 </i>
   </energy>
  </scstep>
  <scstep>
   <time name="dav">   76.80   77.65</time>
   <time name="total">   77.59   78.44</time>
   <energy>
    <i name="e_fr_energy">   -285.50093541 </i>
    <i name="e_wo_entrp">   -285.50093541 </i>
    <i name="e_0_energy">   -285.50093541 </i>
   </energy>
  </scstep>
  <scstep>
   <time name="dav">   75.44   76.12</time>
   <time name="total">   76.23   76.91</time>
   <energy>
    <i name="e_fr_energy">   -285.50151669 </i>
    <i name="e_wo_entrp">   -285.50151669 </i>
    <i name="e_0_energy">   -285.50151669 </i>
   </energy>
  </scstep>
  <scstep>
   <time name="dav">   74.11   74.79</time>
   <time name="total">   74.90   75.58</time>
   <energy>
    <i name="e_fr_energy">   -285.50160362 </i>
    <i name="e_wo_entrp">   -285.50160362 </i>
    <i name="e_0_energy">   -285.50160362 </i>
   </energy>
  </scstep>
  <scstep>
   <time name="dav">   82.08   83.16</time>
   <time name="total">   82.87   83.96</time>
   <energy>
    <i name="e_fr_energy">   -285.50162819 </i>
    <i name="e_wo_entrp">   -285.50162819 </i>
    <i name="e_0_energy">   -285.50162819 </i>
   </energy>
  </scstep>
  <scstep>
   <time name="dav">   60.83   61.43</time>
   <time name="total">   61.63   62.24</time>
   <energy>
    <i name="e_fr_energy">   -285.50163763 </i>
    <i name="e_wo_entrp">   -285.50163763 </i>
    <i name="e_0_energy">   -285.50163763 </i>
   </energy>
  </scstep>
  <scstep>
   <time name="dav">   66.79   67.22</time>
   <time name="total">   67.57   68.01</time>
   <energy>
    <i name="e_fr_energy">   -285.50163887 </i>
    <i name="e_wo_entrp">   -285.50163887 </i>
    <i name="e_0_energy">   -285.50163887 </i>
   </energy>
  </scstep>
  <scstep>
   <time name="dav">   46.05   46.36</time>
   <time name="total">   46.12   46.43</time>
   <energy>
    <i name="alphaZ">   1054.17224280 </i>
    <i name="ewald"> -30164.63512712 </i>
    <i name="hartreedc"> -12957.95695249 </i>
    <i name="XCdc">   1198.67550097 </i>
    <i name="pawpsdc">  43551.88527697 </i>
    <i name="pawaedc"> -42778.79664138 </i>
    <i name="eentropy">      0.00000000 </i>
    <i name="bandstr">  -3832.36388853 </i>
    <i name="atom">  43643.51795008 </i>
    <i name="e_fr_energy">   -285.50163870 </i>
    <i name="e_wo_entrp">   -285.50163870 </i>
    <i name="e_0_energy">   -285.50163870 </i>
   </energy>
  </scstep>
  <structure>
   <crystal>
    <varray name="basis" >
     <v>      11.17850000       0.00000000       0.00000000 </v>
     <v>       0.00000000       9.57460000       0.00000000 </v>
     <v>       0.00000000       0.00000000      11.18240000 </v>
    </varray>
    <i name="volume">   1196.84853820 </i>
    <varray name="rec_basis" >
     <v>       0.08945744       0.00000000       0.00000000 </v>
     <v>       0.00000000       0.10444301       0.00000000 </v>
     <v>       0.00000000       0.00000000       0.08942624 </v>
    </varray>
   </crystal>
   <varray name="positions" >
    <v>       0.12539000       0.99984000       0.93687000 </v>
    <v>       0.37539000       0.00017000       0.93687000 </v>
    <v>       0.62539000       0.99984000       0.93687000 </v>
    <v>       0.87539000       0.00017000       0.93687000 </v>
    <v>       0.37539000       0.00017000       0.43687000 </v>
    <v>       0.37461000       0.00017000       0.18687000 </v>
    <v>       0.87539000       0.00017000       0.43687000 </v>
    <v>       0.87461000       0.00017000       0.18687000 </v>
    <v>       0.12461000       0.99984000       0.68687000 </v>
    <v>       0.62461000       0.99984000       0.68687000 </v>
    <v>       0.00013000       0.29519000       0.06281000 </v>
    <v>       0.25013000       0.70481000       0.06281000 </v>
    <v>       0.24987000       0.29519000       0.31282000 </v>
    <v>       0.49987000       0.70481000       0.31282000 </v>
    <v>       0.50013000       0.29519000       0.06281000 </v>
    <v>       0.75013000       0.70481000       0.06281000 </v>
    <v>       0.74987000       0.29519000       0.31282000 </v>
    <v>       0.99987000       0.70481000       0.31282000 </v>
    <v>       0.00013000       0.29519000       0.56281000 </v>
    <v>       0.25013000       0.70481000       0.56281000 </v>
    <v>       0.24987000       0.29519000       0.81282000 </v>
    <v>       0.49987000       0.70481000       0.81282000 </v>
    <v>       0.50013000       0.29519000       0.56281000 </v>
    <v>       0.75013000       0.70481000       0.56281000 </v>
    <v>       0.74987000       0.29519000       0.81282000 </v>
    <v>       0.99987000       0.70481000       0.81282000 </v>
    <v>       0.25005000       0.32677000       0.06286000 </v>
    <v>       0.00005000       0.67323000       0.06286000 </v>
    <v>       0.49995000       0.32677000       0.31286000 </v>
    <v>       0.24995000       0.67323000       0.31286000 </v>
    <v>       0.75005000       0.32677000       0.06286000 </v>
    <v>       0.50005000       0.67323000       0.06286000 </v>
    <v>       0.99995000       0.32677000       0.31286000 </v>
    <v>       0.74995000       0.67323000       0.31286000 </v>
    <v>       0.25005000       0.32677000       0.56286000 </v>
    <v>       0.00005000       0.67323000       0.56286000 </v>
    <v>       0.49995000       0.32677000       0.81286000 </v>
    <v>       0.24995000       0.67323000       0.81286000 </v>
    <v>       0.75005000       0.32677000       0.56286000 </v>
    <v>       0.50005000       0.67323000       0.56286000 </v>
    <v>       0.99995000       0.32677000       0.81286000 </v>
    <v>       0.74995000       0.67323000       0.81286000 </v>
    <v>       0.49987000       0.07798000       0.06246000 </v>
    <v>       0.24987000       0.92202000       0.06246000 </v>
    <v>       0.25013000       0.07798000       0.31246000 </v>
    <v>       0.00013000       0.92202000       0.31246000 </v>
    <v>       0.99987000       0.07798000       0.06246000 </v>
    <v>       0.74987000       0.92202000       0.06246000 </v>
    <v>       0.75013000       0.07798000       0.31246000 </v>
    <v>       0.50013000       0.92202000       0.31246000 </v>
    <v>       0.49987000       0.07798000       0.56246000 </v>
    <v>       0.24987000       0.92202000       0.56246000 </v>
    <v>       0.25013000       0.07798000       0.81246000 </v>
    <v>       0.00013000       0.92202000       0.81246000 </v>
    <v>       0.99987000       0.07798000       0.56246000 </v>
    <v>       0.74987000       0.92202000       0.56246000 </v>
    <v>       0.75013000       0.07798000       0.81246000 </v>
    <v>       0.50013000       0.92202000       0.81246000 </v>
   </varray>
  </structure>
  <varray name="forces" >
   <v>      -0.00313219       0.00078958       0.49457211 </v>
   <v>      -0.00465594      -0.00038699      -0.47506067 </v>
   <v>      -0.00313219       0.00078958       0.49457211 </v>
   <v>      -0.00465594      -0.00038699      -0.47506067 </v>
   <v>      -0.01897011      -0.00841630       1.18789159 </v>
   <v>       0.01684809      -0.00788761      -0.49938246 </v>
   <v>      -0.01897011      -0.00841630       1.18789159 </v>
   <v>       0.01684809      -0.00788761      -0.49938246 </v>
   <v>       0.02473332       0.00478609      -0.60288168 </v>
   <v>       0.02473332       0.00478609      -0.60288168 </v>
   <v>       0.18004445      -0.01228779       0.02109805 </v>
   <v>      -0.19276097       0.00615356       0.02151062 </v>
   <v>      -0.37706075       0.02572037      -0.02744676 </v>
   <v>       0.38790943      -0.01835110      -0.03091832 </v>
   <v>       0.18004445      -0.01228779       0.02109805 </v>
   <v>      -0.19276097       0.00615356       0.02151062 </v>
   <v>      -0.37706075       0.02572037      -0.02744676 </v>
   <v>       0.38790943      -0.01835110      -0.03091832 </v>
   <v>      -0.01882142      -0.07976059       0.01421494 </v>
   <v>       0.00635692       0.09799548       0.01259054 </v>
   <v>       0.20406690      -0.00149381      -0.02570518 </v>
   <v>      -0.19302638      -0.01112738      -0.02371643 </v>
   <v>      -0.01882142      -0.07976059       0.01421494 </v>
   <v>       0.00635692       0.09799548       0.01259054 </v>
   <v>       0.20406690      -0.00149381      -0.02570518 </v>
   <v>      -0.19302638      -0.01112738      -0.02371643 </v>
   <v>       0.05746734       0.15345517       0.02882155 </v>
   <v>      -0.05878587      -0.15454463       0.02479208 </v>
   <v>      -0.11507733       0.11389882      -0.01474989 </v>
   <v>       0.11613853      -0.11631024      -0.01874880 </v>
   <v>       0.05746734       0.15345517       0.02882155 </v>
   <v>      -0.05878587      -0.15454463       0.02479208 </v>
   <v>      -0.11507733       0.11389882      -0.01474989 </v>
   <v>       0.11613853      -0.11631024      -0.01874880 </v>
   <v>      -0.00305276       0.10082487       0.00223577 </v>
   <v>       0.00216890      -0.10046552       0.00628910 </v>
   <v>       0.06156499       0.15205362      -0.01700254 </v>
   <v>      -0.06057369      -0.15247953      -0.01395959 </v>
   <v>      -0.00305276       0.10082487       0.00223577 </v>
   <v>       0.00216890      -0.10046552       0.00628910 </v>
   <v>       0.06156499       0.15205362      -0.01700254 </v>
   <v>      -0.06057369      -0.15247953      -0.01395959 </v>
   <v>      -1.08338380       0.06404475      -0.15915395 </v>
   <v>       1.09175005      -0.06049203      -0.16125177 </v>
   <v>       2.04979983      -0.03671958      -0.00427085 </v>
   <v>      -2.06635499       0.04155777      -0.01541457 </v>
   <v>      -1.08338380       0.06404475      -0.15915395 </v>
   <v>       1.09175005      -0.06049203      -0.16125177 </v>
   <v>       2.04979983      -0.03671958      -0.00427085 </v>
   <v>      -2.06635499       0.04155777      -0.01541457 </v>
   <v>       0.00534301       0.29371663       0.00965269 </v>
   <v>       0.01069689      -0.29535538       0.00348768 </v>
   <v>      -1.10942325       0.04987425       0.12747188 </v>
   <v>       1.09019080      -0.04879249       0.13503487 </v>
   <v>       0.00534301       0.29371663       0.00965269 </v>
   <v>       0.01069689      -0.29535538       0.00348768 </v>
   <v>      -1.10942325       0.04987425       0.12747188 </v>
   <v>       1.09019080      -0.04879249       0.13503487 </v>
  </varray>
  <varray name="stress" >
   <v>     -17.46528862      -0.67856341       0.03416392 </v>
   <v>      -0.67856346     -13.60770917       0.05312583 </v>
   <v>       0.03416386       0.05312577      -0.10262295 </v>
  </varray>
  <energy>
   <i name="e_fr_energy">   -297.09779583 </i>
   <i name="e_wo_entrp">   -297.09779583 </i>
   <i name="e_0_energy">      0.00000000 </i>
  </energy>
  <time name="totalsc"> 1433.67 1445.94</time>
  <eigenvalues>
   <array>
    <dimension dim="1">band</dimension>
    <dimension dim="2">kpoint</dimension>
    <dimension dim="3">spin</dimension>
    <field>eigene</field>
    <field>occ</field>
    <set>
     <set comment="spin 1">
      <set comment="kpoint 1">
       <r>  -39.8743    1.0000 </r>
       <r>  -39.8657    1.0000 </r>
       <r>  -39.8646    1.0000 </r>
       <r>  -39.8561    1.0000 </r>
       <r>  -18.7413    1.0000 </r>
       <r>  -18.7395    1.0000 </r>
       <r>  -18.7308    1.0000 </r>
       <r>  -18.7288    1.0000 </r>
       <r>  -18.7228    1.0000 </r>
       <r>  -18.7214    1.0000 </r>
       <r>  -18.7198    1.0000 </r>
       <r>  -18.7196    1.0000 </r>
       <r>  -18.7183    1.0000 </r>
       <r>  -18.7179    1.0000 </r>
       <r>  -18.7168    1.0000 </r>
       <r>  -18.7158    1.0000 </r>
       <r>  -18.7141    1.0000 </r>
       <r>  -18.7139    1.0000 </r>
       <r>  -18.7075    1.0000 </r>
       <r>  -18.7055    1.0000 </r>
       <r>  -18.7047    1.0000 </r>
       <r>  -18.7043    1.0000 </r>
       <r>  -18.7041    1.0000 </r>
       <r>  -18.7030    1.0000 </r>
       <r>  -18.7009    1.0000 </r>
       <r>  -18.6999    1.0000 </r>
       <r>  -18.6993    1.0000 </r>
       <r>  -18.6988    1.0000 </r>
       <r>  -18.6983    1.0000 </r>
       <r>  -18.6983    1.0000 </r>
       <r>  -18.6967    1.0000 </r>
       <r>  -18.6959    1.0000 </r>
       <r>  -18.6901    1.0000 </r>
       <r>  -18.6877    1.0000 </r>
       <r>  -18.6876    1.0000 </r>
       <r>  -18.6858    1.0000 </r>
       <r>  -18.6853    1.0000 </r>
       <r>  -18.6850    1.0000 </r>
       <r>  -18.6818    1.0000 </r>
       <r>  -18.6810    1.0000 </r>
       <r>  -18.6807    1.0000 </r>
       <r>  -18.6797    1.0000 </r>
       <r>  -18.6789    1.0000 </r>
       <r>  -18.6760    1.0000 </r>
       <r>  -18.6729    1.0000 </r>
       <r>  -18.6706    1.0000 </r>
       <r>  -18.6699    1.0000 </r>
       <r>  -18.6653    1.0000 </r>
       <r>  -18.6644    1.0000 </r>
       <r>  -18.6595    1.0000 </r>
       <r>  -18.6591    1.0000 </r>
       <r>  -18.6562    1.0000 </r>
       <r>  -18.5652    1.0000 </r>
       <r>  -18.5649    1.0000 </r>
       <r>  -18.5635    1.0000 </r>
       <r>  -18.5632    1.0000 </r>
       <r>  -18.5618    1.0000 </r>
       <r>  -18.5613    1.0000 </r>
       <r>  -18.5600    1.0000 </r>
       <r>  -18.5588    1.0000 </r>
       <r>  -18.5548    1.0000 </r>
       <r>  -18.5545    1.0000 </r>
       <r>  -18.5521    1.0000 </r>
       <r>  -18.5511    1.0000 </r>
       <r>  -18.5456    1.0000 </r>
       <r>  -18.5456    1.0000 </r>
       <r>  -18.5448    1.0000 </r>
       <r>  -18.5438    1.0000 </r>
       <r>  -18.5402    1.0000 </r>
       <r>  -18.5397    1.0000 </r>
       <r>  -18.5384    1.0000 </r>
       <r>  -18.5379    1.0000 </r>
       <r>  -18.5356    1.0000 </r>
       <r>  -18.5355    1.0000 </r>
       <r>  -18.5340    1.0000 </r>
       <r>  -18.5339    1.0000 </r>
       <r>  -18.5312    1.0000 </r>
       <r>  -18.5307    1.0000 </r>
       <r>  -18.5302    1.0000 </r>
       <r>  -18.5299    1.0000 </r>
       <r>  -18.5128    1.0000 </r>
       <r>  -18.5126    1.0000 </r>
       <r>  -18.5064    1.0000 </r>
       <r>  -18.5064    1.0000 </r>
       <r>  -13.0792    1.0000 </r>
       <r>  -12.9626    1.0000 </r>
       <r>  -12.9038    1.0000 </r>
       <r>  -12.8715    1.0000 </r>
       <r>  -12.8337    1.0000 </r>
       <r>  -12.8112    1.0000 </r>
       <r>  -12.8003    1.0000 </r>
       <r>  -12.7840    1.0000 </r>
       <r>  -12.7487    1.0000 </r>
       <r>  -12.7281    1.0000 </r>
       <r>  -12.7087    1.0000 </r>
       <r>  -12.7008    1.0000 </r>
       <r>  -12.6914    1.0000 </r>
       <r>  -12.6894    1.0000 </r>
       <r>  -12.6796    1.0000 </r>
       <r>  -12.6498    1.0000 </r>
       <r>   -9.3793    1.0000 </r>
       <r>   -9.0807    1.0000 </r>
       <r>   -8.5504    1.0000 </r>
       <r>   -8.5494    1.0000 </r>
       <r>   -8.5441    1.0000 </r>
       <r>   -8.5416    1.0000 </r>
       <r>   -8.3223    1.0000 </r>
       <r>   -8.3211    1.0000 </r>
       <r>   -8.3168    1.0000 </r>
       <r>   -8.3151    1.0000 </r>
       <r>   -8.0900    1.0000 </r>
       <r>   -8.0886    1.0000 </r>
       <r>   -8.0849    1.0000 </r>
       <r>   -8.0828    1.0000 </r>
       <r>   -7.4228    1.0000 </r>
       <r>   -7.4212    1.0000 </r>
       <r>   -6.4184    1.0000 </r>
       <r>   -6.4166    1.0000 </r>
       <r>   -6.3941    1.0000 </r>
       <r>   -6.3898    1.0000 </r>
       <r>   -5.5123    1.0000 </r>
       <r>   -5.5095    1.0000 </r>
       <r>   -5.4077    1.0000 </r>
       <r>   -5.4057    1.0000 </r>
       <r>   -5.3994    1.0000 </r>
       <r>   -5.3886    1.0000 </r>
       <r>   -5.2441    1.0000 </r>
       <r>   -5.2344    1.0000 </r>
       <r>   -5.2326    1.0000 </r>
       <r>   -5.2210    1.0000 </r>
       <r>   -3.8826    1.0000 </r>
       <r>   -3.7372    1.0000 </r>
       <r>   -1.4820    1.0000 </r>
       <r>   -1.4004    1.0000 </r>
       <r>   -1.1326    1.0000 </r>
       <r>   -1.0699    1.0000 </r>
       <r>   -0.5727    1.0000 </r>
       <r>   -0.5582    1.0000 </r>
       <r>   -0.5376    1.0000 </r>
       <r>   -0.5372    1.0000 </r>
       <r>   -0.2281    1.0000 </r>
       <r>   -0.2154    1.0000 </r>
       <r>   -0.2042    1.0000 </r>
       <r>   -0.2024    1.0000 </r>
       <r>    0.1826    1.0000 </r>
       <r>    0.2644    1.0000 </r>
       <r>    0.3642    1.0000 </r>
       <r>    0.4333    1.0000 </r>
       <r>    0.4769    1.0000 </r>
       <r>    0.5630    1.0000 </r>
       <r>    0.6034    1.0000 </r>
       <r>    0.6317    1.0000 </r>
       <r>    0.6501    1.0000 </r>
       <r>    0.6689    1.0000 </r>
       <r>    0.7071    1.0000 </r>
       <r>    0.7472    1.0000 </r>
       <r>    0.8053    1.0000 </r>
       <r>    0.8101    1.0000 </r>
       <r>    0.8574    1.0000 </r>
       <r>    0.8675    1.0000 </r>
       <r>    0.9294    1.0000 </r>
       <r>    0.9413    1.0000 </r>
       <r>    0.9973    1.0000 </r>
       <r>    1.0150    1.0000 </r>
       <r>    1.0218    1.0000 </r>
       <r>    1.0687    1.0000 </r>
       <r>    1.1106    1.0000 </r>
       <r>    1.1478    1.0000 </r>
       <r>    1.2456    1.0000 </r>
       <r>    1.2485    1.0000 </r>
       <r>    1.3031    1.0000 </r>
       <r>    1.3090    1.0000 </r>
       <r>    1.3788    1.0000 </r>
       <r>    1.5874    1.0000 </r>
       <r>    1.6097    1.0000 </r>
       <r>    1.6259    1.0000 </r>
       <r>    1.6318    1.0000 </r>
       <r>    1.6707    1.0000 </r>
       <r>    1.7063    1.0000 </r>
       <r>    1.7662    1.0000 </r>
       <r>    1.7718    1.0000 </r>
       <r>    1.8790    1.0000 </r>
       <r>    1.8910    1.0000 </r>
       <r>    1.9276    1.0000 </r>
       <r>    1.9407    1.0000 </r>
       <r>    1.9868    1.0000 </r>
       <r>    2.1018    1.0000 </r>
       <r>    2.1822    1.0000 </r>
       <r>    2.2204    1.0000 </r>
       <r>    2.2861    1.0000 </r>
       <r>    2.5164    1.0000 </r>
       <r>    2.5194    1.0000 </r>
       <r>    2.5330    1.0000 </r>
       <r>    2.5352    1.0000 </r>
       <r>    2.6167    1.0000 </r>
       <r>    2.6332    1.0000 </r>
       <r>    2.6337    1.0000 </r>
       <r>    2.6553    1.0000 </r>
       <r>    2.6605    1.0000 </r>
       <r>    2.6656    1.0000 </r>
       <r>    2.7033    1.0000 </r>
       <r>    2.7079    1.0000 </r>
       <r>    2.7127    1.0000 </r>
       <r>    2.7411    1.0000 </r>
       <r>    2.7488    1.0000 </r>
       <r>    2.8034    1.0000 </r>
       <r>    2.8732    1.0000 </r>
       <r>    2.9112    1.0000 </r>
       <r>    2.9140    1.0000 </r>
       <r>    2.9306    1.0000 </r>
       <r>    2.9364    1.0000 </r>
       <r>    2.9854    1.0000 </r>
       <r>    3.0056    1.0000 </r>
       <r>    3.0259    1.0000 </r>
       <r>    3.0363    1.0000 </r>
       <r>    3.1059    1.0000 </r>
       <r>    3.1147    1.0000 </r>
       <r>    3.1147    1.0000 </r>
       <r>    3.1217    1.0000 </r>
       <r>    3.1288    1.0000 </r>
       <r>    3.3340    1.0000 </r>
       <r>    3.3528    1.0000 </r>
       <r>    3.3811    1.0000 </r>
       <r>    3.3971    1.0000 </r>
       <r>    4.1198    1.0000 </r>
       <r>    4.1281    1.0000 </r>
       <r>    4.1444    1.0000 </r>
       <r>    4.1502    1.0000 </r>
       <r>    4.9983    0.0000 </r>
       <r>    5.0129    0.0000 </r>
       <r>    5.0802    0.0000 </r>
       <r>    5.0826    0.0000 </r>
       <r>    5.7148    0.0000 </r>
       <r>    5.7195    0.0000 </r>
       <r>    5.7610    0.0000 </r>
       <r>    5.7665    0.0000 </r>
       <r>    6.0483    0.0000 </r>
       <r>    6.0682    0.0000 </r>
       <r>    6.0690    0.0000 </r>
       <r>    6.0754    0.0000 </r>
       <r>    6.1645    0.0000 </r>
       <r>    6.1808    0.0000 </r>
       <r>    6.1813    0.0000 </r>
       <r>    6.1849    0.0000 </r>
       <r>    7.1163    0.0000 </r>
       <r>    7.1285    0.0000 </r>
       <r>    7.1940    0.0000 </r>
       <r>    7.2774    0.0000 </r>
       <r>    7.8563    0.0000 </r>
       <r>    7.8659    0.0000 </r>
       <r>    7.8758    0.0000 </r>
       <r>    7.8777    0.0000 </r>
       <r>    7.8837    0.0000 </r>
       <r>    7.9125    0.0000 </r>
       <r>    7.9482    0.0000 </r>
       <r>    8.0273    0.0000 </r>
       <r>    8.1698    0.0000 </r>
       <r>    8.4514    0.0000 </r>
       <r>    8.5637    0.0000 </r>
       <r>    8.6894    0.0000 </r>
       <r>    8.6976    0.0000 </r>
       <r>    8.8068    0.0000 </r>
       <r>    8.9209    0.0000 </r>
       <r>    8.9427    0.0000 </r>
       <r>    8.9744    0.0000 </r>
       <r>    8.9941    0.0000 </r>
       <r>    9.0090    0.0000 </r>
       <r>    9.0240    0.0000 </r>
       <r>    9.0349    0.0000 </r>
       <r>    9.1191    0.0000 </r>
       <r>    9.1240    0.0000 </r>
       <r>    9.2220    0.0000 </r>
       <r>    9.3992    0.0000 </r>
       <r>    9.4451    0.0000 </r>
       <r>    9.4533    0.0000 </r>
       <r>    9.4862    0.0000 </r>
       <r>    9.6147    0.0000 </r>
       <r>    9.6260    0.0000 </r>
       <r>    9.6783    0.0000 </r>
       <r>    9.7795    0.0000 </r>
      </set>
      <set comment="kpoint 2">
       <r>  -39.8719    1.0000 </r>
       <r>  -39.8714    1.0000 </r>
       <r>  -39.8590    1.0000 </r>
       <r>  -39.8585    1.0000 </r>
       <r>  -18.7322    1.0000 </r>
       <r>  -18.7322    1.0000 </r>
       <r>  -18.7302    1.0000 </r>
       <r>  -18.7302    1.0000 </r>
       <r>  -18.7234    1.0000 </r>
       <r>  -18.7234    1.0000 </r>
       <r>  -18.7211    1.0000 </r>
       <r>  -18.7211    1.0000 </r>
       <r>  -18.7208    1.0000 </r>
       <r>  -18.7208    1.0000 </r>
       <r>  -18.7172    1.0000 </r>
       <r>  -18.7172    1.0000 </r>
       <r>  -18.7116    1.0000 </r>
       <r>  -18.7116    1.0000 </r>
       <r>  -18.7114    1.0000 </r>
       <r>  -18.7114    1.0000 </r>
       <r>  -18.7097    1.0000 </r>
       <r>  -18.7096    1.0000 </r>
       <r>  -18.7092    1.0000 </r>
       <r>  -18.7092    1.0000 </r>
       <r>  -18.7019    1.0000 </r>
       <r>  -18.7018    1.0000 </r>
       <r>  -18.7005    1.0000 </r>
       <r>  -18.7005    1.0000 </r>
       <r>  -18.6964    1.0000 </r>
       <r>  -18.6963    1.0000 </r>
       <r>  -18.6949    1.0000 </r>
       <r>  -18.6949    1.0000 </r>
       <r>  -18.6841    1.0000 </r>
       <r>  -18.6841    1.0000 </r>
       <r>  -18.6812    1.0000 </r>
       <r>  -18.6812    1.0000 </r>
       <r>  -18.6809    1.0000 </r>
       <r>  -18.6809    1.0000 </r>
       <r>  -18.6799    1.0000 </r>
       <r>  -18.6799    1.0000 </r>
       <r>  -18.6779    1.0000 </r>
       <r>  -18.6779    1.0000 </r>
       <r>  -18.6776    1.0000 </r>
       <r>  -18.6776    1.0000 </r>
       <r>  -18.6727    1.0000 </r>
       <r>  -18.6726    1.0000 </r>
       <r>  -18.6688    1.0000 </r>
       <r>  -18.6688    1.0000 </r>
       <r>  -18.6648    1.0000 </r>
       <r>  -18.6648    1.0000 </r>
       <r>  -18.6597    1.0000 </r>
       <r>  -18.6597    1.0000 </r>
       <r>  -18.5650    1.0000 </r>
       <r>  -18.5650    1.0000 </r>
       <r>  -18.5633    1.0000 </r>
       <r>  -18.5633    1.0000 </r>
       <r>  -18.5615    1.0000 </r>
       <r>  -18.5615    1.0000 </r>
       <r>  -18.5594    1.0000 </r>
       <r>  -18.5594    1.0000 </r>
       <r>  -18.5548    1.0000 </r>
       <r>  -18.5548    1.0000 </r>
       <r>  -18.5518    1.0000 </r>
       <r>  -18.5517    1.0000 </r>
       <r>  -18.5457    1.0000 </r>
       <r>  -18.5456    1.0000 </r>
       <r>  -18.5444    1.0000 </r>
       <r>  -18.5444    1.0000 </r>
       <r>  -18.5398    1.0000 </r>
       <r>  -18.5398    1.0000 </r>
       <r>  -18.5381    1.0000 </r>
       <r>  -18.5380    1.0000 </r>
       <r>  -18.5356    1.0000 </r>
       <r>  -18.5355    1.0000 </r>
       <r>  -18.5338    1.0000 </r>
       <r>  -18.5338    1.0000 </r>
       <r>  -18.5311    1.0000 </r>
       <r>  -18.5311    1.0000 </r>
       <r>  -18.5302    1.0000 </r>
       <r>  -18.5301    1.0000 </r>
       <r>  -18.5127    1.0000 </r>
       <r>  -18.5127    1.0000 </r>
       <r>  -18.5064    1.0000 </r>
       <r>  -18.5064    1.0000 </r>
       <r>  -13.0335    1.0000 </r>
       <r>  -13.0335    1.0000 </r>
       <r>  -12.8753    1.0000 </r>
       <r>  -12.8753    1.0000 </r>
       <r>  -12.8164    1.0000 </r>
       <r>  -12.8164    1.0000 </r>
       <r>  -12.8065    1.0000 </r>
       <r>  -12.8065    1.0000 </r>
       <r>  -12.7268    1.0000 </r>
       <r>  -12.7268    1.0000 </r>
       <r>  -12.6993    1.0000 </r>
       <r>  -12.6993    1.0000 </r>
       <r>  -12.6956    1.0000 </r>
       <r>  -12.6956    1.0000 </r>
       <r>  -12.6679    1.0000 </r>
       <r>  -12.6679    1.0000 </r>
       <r>   -9.1644    1.0000 </r>
       <r>   -9.1644    1.0000 </r>
       <r>   -8.8856    1.0000 </r>
       <r>   -8.8856    1.0000 </r>
       <r>   -8.3827    1.0000 </r>
       <r>   -8.3827    1.0000 </r>
       <r>   -8.3796    1.0000 </r>
       <r>   -8.3796    1.0000 </r>
       <r>   -8.1936    1.0000 </r>
       <r>   -8.1936    1.0000 </r>
       <r>   -8.1919    1.0000 </r>
       <r>   -8.1919    1.0000 </r>
       <r>   -7.7571    1.0000 </r>
       <r>   -7.7571    1.0000 </r>
       <r>   -7.6440    1.0000 </r>
       <r>   -7.6440    1.0000 </r>
       <r>   -5.9594    1.0000 </r>
       <r>   -5.9594    1.0000 </r>
       <r>   -5.9393    1.0000 </r>
       <r>   -5.9393    1.0000 </r>
       <r>   -5.8134    1.0000 </r>
       <r>   -5.8134    1.0000 </r>
       <r>   -5.7916    1.0000 </r>
       <r>   -5.7916    1.0000 </r>
       <r>   -5.7319    1.0000 </r>
       <r>   -5.7319    1.0000 </r>
       <r>   -5.6352    1.0000 </r>
       <r>   -5.6352    1.0000 </r>
       <r>   -4.4988    1.0000 </r>
       <r>   -4.4988    1.0000 </r>
       <r>   -4.3361    1.0000 </r>
       <r>   -4.3361    1.0000 </r>
       <r>   -1.2012    1.0000 </r>
       <r>   -1.2012    1.0000 </r>
       <r>   -0.8598    1.0000 </r>
       <r>   -0.8598    1.0000 </r>
       <r>   -0.4154    1.0000 </r>
       <r>   -0.4154    1.0000 </r>
       <r>    0.0142    1.0000 </r>
       <r>    0.0142    1.0000 </r>
       <r>    0.1206    1.0000 </r>
       <r>    0.1206    1.0000 </r>
       <r>    0.1876    1.0000 </r>
       <r>    0.1876    1.0000 </r>
       <r>    0.2193    1.0000 </r>
       <r>    0.2193    1.0000 </r>
       <r>    0.2694    1.0000 </r>
       <r>    0.2695    1.0000 </r>
       <r>    0.4307    1.0000 </r>
       <r>    0.4307    1.0000 </r>
       <r>    0.5129    1.0000 </r>
       <r>    0.5129    1.0000 </r>
       <r>    0.5648    1.0000 </r>
       <r>    0.5648    1.0000 </r>
       <r>    0.6437    1.0000 </r>
       <r>    0.6437    1.0000 </r>
       <r>    0.7418    1.0000 </r>
       <r>    0.7418    1.0000 </r>
       <r>    0.8496    1.0000 </r>
       <r>    0.8496    1.0000 </r>
       <r>    1.0387    1.0000 </r>
       <r>    1.0387    1.0000 </r>
       <r>    1.0956    1.0000 </r>
       <r>    1.0956    1.0000 </r>
       <r>    1.1506    1.0000 </r>
       <r>    1.1506    1.0000 </r>
       <r>    1.1803    1.0000 </r>
       <r>    1.1803    1.0000 </r>
       <r>    1.2541    1.0000 </r>
       <r>    1.2541    1.0000 </r>
       <r>    1.2987    1.0000 </r>
       <r>    1.2987    1.0000 </r>
       <r>    1.3139    1.0000 </r>
       <r>    1.3139    1.0000 </r>
       <r>    1.4897    1.0000 </r>
       <r>    1.4897    1.0000 </r>
       <r>    1.6380    1.0000 </r>
       <r>    1.6380    1.0000 </r>
       <r>    1.7517    1.0000 </r>
       <r>    1.7517    1.0000 </r>
       <r>    1.7557    1.0000 </r>
       <r>    1.7557    1.0000 </r>
       <r>    1.7945    1.0000 </r>
       <r>    1.7945    1.0000 </r>
       <r>    1.9096    1.0000 </r>
       <r>    1.9096    1.0000 </r>
       <r>    2.0013    1.0000 </r>
       <r>    2.0013    1.0000 </r>
       <r>    2.0268    1.0000 </r>
       <r>    2.0268    1.0000 </r>
       <r>    2.1389    1.0000 </r>
       <r>    2.1389    1.0000 </r>
       <r>    2.2571    1.0000 </r>
       <r>    2.2571    1.0000 </r>
       <r>    2.4102    1.0000 </r>
       <r>    2.4102    1.0000 </r>
       <r>    2.4200    1.0000 </r>
       <r>    2.4200    1.0000 </r>
       <r>    2.5287    1.0000 </r>
       <r>    2.5288    1.0000 </r>
       <r>    2.6243    1.0000 </r>
       <r>    2.6243    1.0000 </r>
       <r>    2.6466    1.0000 </r>
       <r>    2.6466    1.0000 </r>
       <r>    2.7813    1.0000 </r>
       <r>    2.7813    1.0000 </r>
       <r>    2.8232    1.0000 </r>
       <r>    2.8232    1.0000 </r>
       <r>    2.8633    1.0000 </r>
       <r>    2.8633    1.0000 </r>
       <r>    2.8931    1.0000 </r>
       <r>    2.8931    1.0000 </r>
       <r>    2.9562    1.0000 </r>
       <r>    2.9562    1.0000 </r>
       <r>    2.9946    1.0000 </r>
       <r>    2.9946    1.0000 </r>
       <r>    3.0819    1.0000 </r>
       <r>    3.0819    1.0000 </r>
       <r>    3.1670    1.0000 </r>
       <r>    3.1670    1.0000 </r>
       <r>    3.4411    1.0000 </r>
       <r>    3.4411    1.0000 </r>
       <r>    3.4592    1.0000 </r>
       <r>    3.4592    1.0000 </r>
       <r>    3.4879    1.0000 </r>
       <r>    3.4879    1.0000 </r>
       <r>    3.5329    1.0000 </r>
       <r>    3.5329    1.0000 </r>
       <r>    5.6197    0.0000 </r>
       <r>    5.6197    0.0000 </r>
       <r>    5.6348    0.0000 </r>
       <r>    5.6348    0.0000 </r>
       <r>    5.7031    0.0000 </r>
       <r>    5.7031    0.0000 </r>
       <r>    5.7155    0.0000 </r>
       <r>    5.7155    0.0000 </r>
       <r>    7.2440    0.0000 </r>
       <r>    7.2440    0.0000 </r>
       <r>    7.3271    0.0000 </r>
       <r>    7.3271    0.0000 </r>
       <r>    7.3509    0.0000 </r>
       <r>    7.3509    0.0000 </r>
       <r>    7.4018    0.0000 </r>
       <r>    7.4018    0.0000 </r>
       <r>    7.4078    0.0000 </r>
       <r>    7.4078    0.0000 </r>
       <r>    7.4443    0.0000 </r>
       <r>    7.4443    0.0000 </r>
       <r>    7.7849    0.0000 </r>
       <r>    7.7849    0.0000 </r>
       <r>    7.7983    0.0000 </r>
       <r>    7.7983    0.0000 </r>
       <r>    7.8063    0.0000 </r>
       <r>    7.8063    0.0000 </r>
       <r>    7.8721    0.0000 </r>
       <r>    7.8721    0.0000 </r>
       <r>    7.9320    0.0000 </r>
       <r>    7.9320    0.0000 </r>
       <r>    8.0347    0.0000 </r>
       <r>    8.0347    0.0000 </r>
       <r>    8.2416    0.0000 </r>
       <r>    8.2416    0.0000 </r>
       <r>    8.2645    0.0000 </r>
       <r>    8.2645    0.0000 </r>
       <r>    8.5923    0.0000 </r>
       <r>    8.5923    0.0000 </r>
       <r>    8.7089    0.0000 </r>
       <r>    8.7089    0.0000 </r>
       <r>    8.7480    0.0000 </r>
       <r>    8.7480    0.0000 </r>
       <r>    8.8518    0.0000 </r>
       <r>    8.8518    0.0000 </r>
       <r>    9.1223    0.0000 </r>
       <r>    9.1223    0.0000 </r>
       <r>    9.3835    0.0000 </r>
       <r>    9.3835    0.0000 </r>
       <r>    9.4007    0.0000 </r>
       <r>    9.4007    0.0000 </r>
       <r>   10.0871    0.0000 </r>
       <r>   10.0871    0.0000 </r>
      </set>
      <set comment="kpoint 3">
       <r>  -39.8743    1.0000 </r>
       <r>  -39.8657    1.0000 </r>
       <r>  -39.8646    1.0000 </r>
       <r>  -39.8560    1.0000 </r>
       <r>  -18.7413    1.0000 </r>
       <r>  -18.7395    1.0000 </r>
       <r>  -18.7308    1.0000 </r>
       <r>  -18.7289    1.0000 </r>
       <r>  -18.7229    1.0000 </r>
       <r>  -18.7221    1.0000 </r>
       <r>  -18.7198    1.0000 </r>
       <r>  -18.7196    1.0000 </r>
       <r>  -18.7183    1.0000 </r>
       <r>  -18.7171    1.0000 </r>
       <r>  -18.7168    1.0000 </r>
       <r>  -18.7158    1.0000 </r>
       <r>  -18.7141    1.0000 </r>
       <r>  -18.7140    1.0000 </r>
       <r>  -18.7075    1.0000 </r>
       <r>  -18.7055    1.0000 </r>
       <r>  -18.7046    1.0000 </r>
       <r>  -18.7044    1.0000 </r>
       <r>  -18.7041    1.0000 </r>
       <r>  -18.7030    1.0000 </r>
       <r>  -18.7009    1.0000 </r>
       <r>  -18.6999    1.0000 </r>
       <r>  -18.6993    1.0000 </r>
       <r>  -18.6992    1.0000 </r>
       <r>  -18.6983    1.0000 </r>
       <r>  -18.6982    1.0000 </r>
       <r>  -18.6963    1.0000 </r>
       <r>  -18.6960    1.0000 </r>
       <r>  -18.6900    1.0000 </r>
       <r>  -18.6877    1.0000 </r>
       <r>  -18.6876    1.0000 </r>
       <r>  -18.6858    1.0000 </r>
       <r>  -18.6853    1.0000 </r>
       <r>  -18.6850    1.0000 </r>
       <r>  -18.6820    1.0000 </r>
       <r>  -18.6811    1.0000 </r>
       <r>  -18.6805    1.0000 </r>
       <r>  -18.6797    1.0000 </r>
       <r>  -18.6789    1.0000 </r>
       <r>  -18.6760    1.0000 </r>
       <r>  -18.6729    1.0000 </r>
       <r>  -18.6706    1.0000 </r>
       <r>  -18.6700    1.0000 </r>
       <r>  -18.6653    1.0000 </r>
       <r>  -18.6644    1.0000 </r>
       <r>  -18.6595    1.0000 </r>
       <r>  -18.6591    1.0000 </r>
       <r>  -18.6562    1.0000 </r>
       <r>  -18.5652    1.0000 </r>
       <r>  -18.5649    1.0000 </r>
       <r>  -18.5635    1.0000 </r>
       <r>  -18.5631    1.0000 </r>
       <r>  -18.5618    1.0000 </r>
       <r>  -18.5613    1.0000 </r>
       <r>  -18.5600    1.0000 </r>
       <r>  -18.5589    1.0000 </r>
       <r>  -18.5547    1.0000 </r>
       <r>  -18.5545    1.0000 </r>
       <r>  -18.5521    1.0000 </r>
       <r>  -18.5512    1.0000 </r>
       <r>  -18.5456    1.0000 </r>
       <r>  -18.5456    1.0000 </r>
       <r>  -18.5448    1.0000 </r>
       <r>  -18.5438    1.0000 </r>
       <r>  -18.5402    1.0000 </r>
       <r>  -18.5397    1.0000 </r>
       <r>  -18.5384    1.0000 </r>
       <r>  -18.5379    1.0000 </r>
       <r>  -18.5356    1.0000 </r>
       <r>  -18.5355    1.0000 </r>
       <r>  -18.5340    1.0000 </r>
       <r>  -18.5339    1.0000 </r>
       <r>  -18.5312    1.0000 </r>
       <r>  -18.5307    1.0000 </r>
       <r>  -18.5302    1.0000 </r>
       <r>  -18.5300    1.0000 </r>
       <r>  -18.5128    1.0000 </r>
       <r>  -18.5126    1.0000 </r>
       <r>  -18.5064    1.0000 </r>
       <r>  -18.5064    1.0000 </r>
       <r>  -13.0772    1.0000 </r>
       <r>  -12.9622    1.0000 </r>
       <r>  -12.9029    1.0000 </r>
       <r>  -12.8711    1.0000 </r>
       <r>  -12.8330    1.0000 </r>
       <r>  -12.8112    1.0000 </r>
       <r>  -12.8017    1.0000 </r>
       <r>  -12.7838    1.0000 </r>
       <r>  -12.7486    1.0000 </r>
       <r>  -12.7281    1.0000 </r>
       <r>  -12.7091    1.0000 </r>
       <r>  -12.7012    1.0000 </r>
       <r>  -12.6920    1.0000 </r>
       <r>  -12.6914    1.0000 </r>
       <r>  -12.6801    1.0000 </r>
       <r>  -12.6507    1.0000 </r>
       <r>   -9.3671    1.0000 </r>
       <r>   -9.0900    1.0000 </r>
       <r>   -8.5667    1.0000 </r>
       <r>   -8.5662    1.0000 </r>
       <r>   -8.5612    1.0000 </r>
       <r>   -8.5601    1.0000 </r>
       <r>   -8.3033    1.0000 </r>
       <r>   -8.3016    1.0000 </r>
       <r>   -8.2971    1.0000 </r>
       <r>   -8.2940    1.0000 </r>
       <r>   -8.0945    1.0000 </r>
       <r>   -8.0922    1.0000 </r>
       <r>   -8.0888    1.0000 </r>
       <r>   -8.0868    1.0000 </r>
       <r>   -7.4255    1.0000 </r>
       <r>   -7.4239    1.0000 </r>
       <r>   -6.4109    1.0000 </r>
       <r>   -6.4042    1.0000 </r>
       <r>   -6.3862    1.0000 </r>
       <r>   -6.3784    1.0000 </r>
       <r>   -5.5055    1.0000 </r>
       <r>   -5.5004    1.0000 </r>
       <r>   -5.4598    1.0000 </r>
       <r>   -5.4519    1.0000 </r>
       <r>   -5.4499    1.0000 </r>
       <r>   -5.4370    1.0000 </r>
       <r>   -5.1815    1.0000 </r>
       <r>   -5.1795    1.0000 </r>
       <r>   -5.1716    1.0000 </r>
       <r>   -5.1628    1.0000 </r>
       <r>   -3.9619    1.0000 </r>
       <r>   -3.6451    1.0000 </r>
       <r>   -1.3932    1.0000 </r>
       <r>   -1.3380    1.0000 </r>
       <r>   -1.2508    1.0000 </r>
       <r>   -1.1534    1.0000 </r>
       <r>   -0.4715    1.0000 </r>
       <r>   -0.4642    1.0000 </r>
       <r>   -0.4528    1.0000 </r>
       <r>   -0.4490    1.0000 </r>
       <r>   -0.3668    1.0000 </r>
       <r>   -0.3460    1.0000 </r>
       <r>   -0.3281    1.0000 </r>
       <r>   -0.3193    1.0000 </r>
       <r>    0.0169    1.0000 </r>
       <r>    0.0649    1.0000 </r>
       <r>    0.1805    1.0000 </r>
       <r>    0.2260    1.0000 </r>
       <r>    0.2639    1.0000 </r>
       <r>    0.2884    1.0000 </r>
       <r>    0.2930    1.0000 </r>
       <r>    0.3028    1.0000 </r>
       <r>    0.4532    1.0000 </r>
       <r>    0.4533    1.0000 </r>
       <r>    0.6878    1.0000 </r>
       <r>    0.7240    1.0000 </r>
       <r>    0.7258    1.0000 </r>
       <r>    0.7624    1.0000 </r>
       <r>    0.7657    1.0000 </r>
       <r>    0.7687    1.0000 </r>
       <r>    0.8512    1.0000 </r>
       <r>    0.9566    1.0000 </r>
       <r>    1.1096    1.0000 </r>
       <r>    1.1303    1.0000 </r>
       <r>    1.2306    1.0000 </r>
       <r>    1.3170    1.0000 </r>
       <r>    1.3221    1.0000 </r>
       <r>    1.4562    1.0000 </r>
       <r>    1.4582    1.0000 </r>
       <r>    1.4677    1.0000 </r>
       <r>    1.5326    1.0000 </r>
       <r>    1.5467    1.0000 </r>
       <r>    1.6171    1.0000 </r>
       <r>    1.6316    1.0000 </r>
       <r>    1.7215    1.0000 </r>
       <r>    1.7230    1.0000 </r>
       <r>    1.7262    1.0000 </r>
       <r>    1.7730    1.0000 </r>
       <r>    1.8225    1.0000 </r>
       <r>    1.8622    1.0000 </r>
       <r>    1.8954    1.0000 </r>
       <r>    1.9353    1.0000 </r>
       <r>    1.9749    1.0000 </r>
       <r>    2.0130    1.0000 </r>
       <r>    2.0181    1.0000 </r>
       <r>    2.1306    1.0000 </r>
       <r>    2.1904    1.0000 </r>
       <r>    2.2345    1.0000 </r>
       <r>    2.2628    1.0000 </r>
       <r>    2.4504    1.0000 </r>
       <r>    2.4773    1.0000 </r>
       <r>    2.5100    1.0000 </r>
       <r>    2.5134    1.0000 </r>
       <r>    2.5199    1.0000 </r>
       <r>    2.5272    1.0000 </r>
       <r>    2.5274    1.0000 </r>
       <r>    2.5288    1.0000 </r>
       <r>    2.5778    1.0000 </r>
       <r>    2.6108    1.0000 </r>
       <r>    2.6862    1.0000 </r>
       <r>    2.7018    1.0000 </r>
       <r>    2.7022    1.0000 </r>
       <r>    2.7353    1.0000 </r>
       <r>    2.7365    1.0000 </r>
       <r>    2.8179    1.0000 </r>
       <r>    2.8399    1.0000 </r>
       <r>    2.8485    1.0000 </r>
       <r>    2.8603    1.0000 </r>
       <r>    2.8651    1.0000 </r>
       <r>    2.9109    1.0000 </r>
       <r>    2.9206    1.0000 </r>
       <r>    2.9292    1.0000 </r>
       <r>    2.9407    1.0000 </r>
       <r>    2.9446    1.0000 </r>
       <r>    2.9676    1.0000 </r>
       <r>    3.1257    1.0000 </r>
       <r>    3.2817    1.0000 </r>
       <r>    3.2831    1.0000 </r>
       <r>    3.3009    1.0000 </r>
       <r>    3.3253    1.0000 </r>
       <r>    3.3723    1.0000 </r>
       <r>    3.3793    1.0000 </r>
       <r>    3.3975    1.0000 </r>
       <r>    3.3980    1.0000 </r>
       <r>    4.1687    1.0000 </r>
       <r>    4.1738    1.0000 </r>
       <r>    4.1925    1.0000 </r>
       <r>    4.1981    1.0000 </r>
       <r>    5.0785    0.0000 </r>
       <r>    5.0806    0.0000 </r>
       <r>    5.1443    0.0000 </r>
       <r>    5.1521    0.0000 </r>
       <r>    5.7206    0.0000 </r>
       <r>    5.7276    0.0000 </r>
       <r>    5.7679    0.0000 </r>
       <r>    5.7742    0.0000 </r>
       <r>    6.0958    0.0000 </r>
       <r>    6.1111    0.0000 </r>
       <r>    6.1122    0.0000 </r>
       <r>    6.1174    0.0000 </r>
       <r>    6.1823    0.0000 </r>
       <r>    6.1997    0.0000 </r>
       <r>    6.2020    0.0000 </r>
       <r>    6.2072    0.0000 </r>
       <r>    6.8084    0.0000 </r>
       <r>    6.8525    0.0000 </r>
       <r>    6.9078    0.0000 </r>
       <r>    7.0446    0.0000 </r>
       <r>    7.1960    0.0000 </r>
       <r>    7.2198    0.0000 </r>
       <r>    7.3093    0.0000 </r>
       <r>    7.4039    0.0000 </r>
       <r>    7.4449    0.0000 </r>
       <r>    7.8470    0.0000 </r>
       <r>    7.8667    0.0000 </r>
       <r>    7.8930    0.0000 </r>
       <r>    7.9121    0.0000 </r>
       <r>    8.2217    0.0000 </r>
       <r>    8.2335    0.0000 </r>
       <r>    8.4172    0.0000 </r>
       <r>    8.6387    0.0000 </r>
       <r>    8.6797    0.0000 </r>
       <r>    8.8688    0.0000 </r>
       <r>    8.9032    0.0000 </r>
       <r>    8.9632    0.0000 </r>
       <r>    8.9833    0.0000 </r>
       <r>    8.9970    0.0000 </r>
       <r>    9.0284    0.0000 </r>
       <r>    9.0390    0.0000 </r>
       <r>    9.0430    0.0000 </r>
       <r>    9.0948    0.0000 </r>
       <r>    9.1858    0.0000 </r>
       <r>    9.4128    0.0000 </r>
       <r>    9.4194    0.0000 </r>
       <r>    9.6303    0.0000 </r>
       <r>    9.6499    0.0000 </r>
       <r>    9.6553    0.0000 </r>
       <r>    9.7744    0.0000 </r>
       <r>    9.8234    0.0000 </r>
       <r>   10.0542    0.0000 </r>
      </set>
      <set comment="kpoint 4">
       <r>  -39.8719    1.0000 </r>
       <r>  -39.8714    1.0000 </r>
       <r>  -39.8589    1.0000 </r>
       <r>  -39.8585    1.0000 </r>
       <r>  -18.7322    1.0000 </r>
       <r>  -18.7322    1.0000 </r>
       <r>  -18.7302    1.0000 </r>
       <r>  -18.7301    1.0000 </r>
       <r>  -18.7234    1.0000 </r>
       <r>  -18.7234    1.0000 </r>
       <r>  -18.7213    1.0000 </r>
       <r>  -18.7213    1.0000 </r>
       <r>  -18.7209    1.0000 </r>
       <r>  -18.7209    1.0000 </r>
       <r>  -18.7169    1.0000 </r>
       <r>  -18.7169    1.0000 </r>
       <r>  -18.7116    1.0000 </r>
       <r>  -18.7116    1.0000 </r>
       <r>  -18.7114    1.0000 </r>
       <r>  -18.7114    1.0000 </r>
       <r>  -18.7097    1.0000 </r>
       <r>  -18.7096    1.0000 </r>
       <r>  -18.7092    1.0000 </r>
       <r>  -18.7092    1.0000 </r>
       <r>  -18.7023    1.0000 </r>
       <r>  -18.7023    1.0000 </r>
       <r>  -18.7001    1.0000 </r>
       <r>  -18.7000    1.0000 </r>
       <r>  -18.6964    1.0000 </r>
       <r>  -18.6963    1.0000 </r>
       <r>  -18.6949    1.0000 </r>
       <r>  -18.6949    1.0000 </r>
       <r>  -18.6841    1.0000 </r>
       <r>  -18.6841    1.0000 </r>
       <r>  -18.6813    1.0000 </r>
       <r>  -18.6813    1.0000 </r>
       <r>  -18.6808    1.0000 </r>
       <r>  -18.6808    1.0000 </r>
       <r>  -18.6798    1.0000 </r>
       <r>  -18.6798    1.0000 </r>
       <r>  -18.6780    1.0000 </r>
       <r>  -18.6780    1.0000 </r>
       <r>  -18.6774    1.0000 </r>
       <r>  -18.6774    1.0000 </r>
       <r>  -18.6727    1.0000 </r>
       <r>  -18.6726    1.0000 </r>
       <r>  -18.6688    1.0000 </r>
       <r>  -18.6688    1.0000 </r>
       <r>  -18.6648    1.0000 </r>
       <r>  -18.6648    1.0000 </r>
       <r>  -18.6597    1.0000 </r>
       <r>  -18.6597    1.0000 </r>
       <r>  -18.5650    1.0000 </r>
       <r>  -18.5650    1.0000 </r>
       <r>  -18.5633    1.0000 </r>
       <r>  -18.5633    1.0000 </r>
       <r>  -18.5615    1.0000 </r>
       <r>  -18.5615    1.0000 </r>
       <r>  -18.5594    1.0000 </r>
       <r>  -18.5594    1.0000 </r>
       <r>  -18.5548    1.0000 </r>
       <r>  -18.5547    1.0000 </r>
       <r>  -18.5518    1.0000 </r>
       <r>  -18.5517    1.0000 </r>
       <r>  -18.5456    1.0000 </r>
       <r>  -18.5456    1.0000 </r>
       <r>  -18.5444    1.0000 </r>
       <r>  -18.5444    1.0000 </r>
       <r>  -18.5398    1.0000 </r>
       <r>  -18.5398    1.0000 </r>
       <r>  -18.5381    1.0000 </r>
       <r>  -18.5380    1.0000 </r>
       <r>  -18.5356    1.0000 </r>
       <r>  -18.5355    1.0000 </r>
       <r>  -18.5338    1.0000 </r>
       <r>  -18.5338    1.0000 </r>
       <r>  -18.5311    1.0000 </r>
       <r>  -18.5310    1.0000 </r>
       <r>  -18.5302    1.0000 </r>
       <r>  -18.5301    1.0000 </r>
       <r>  -18.5127    1.0000 </r>
       <r>  -18.5127    1.0000 </r>
       <r>  -18.5064    1.0000 </r>
       <r>  -18.5064    1.0000 </r>
       <r>  -13.0321    1.0000 </r>
       <r>  -13.0321    1.0000 </r>
       <r>  -12.8747    1.0000 </r>
       <r>  -12.8747    1.0000 </r>
       <r>  -12.8170    1.0000 </r>
       <r>  -12.8170    1.0000 </r>
       <r>  -12.8061    1.0000 </r>
       <r>  -12.8061    1.0000 </r>
       <r>  -12.7269    1.0000 </r>
       <r>  -12.7269    1.0000 </r>
       <r>  -12.7000    1.0000 </r>
       <r>  -12.7000    1.0000 </r>
       <r>  -12.6966    1.0000 </r>
       <r>  -12.6965    1.0000 </r>
       <r>  -12.6688    1.0000 </r>
       <r>  -12.6688    1.0000 </r>
       <r>   -9.1642    1.0000 </r>
       <r>   -9.1642    1.0000 </r>
       <r>   -8.8828    1.0000 </r>
       <r>   -8.8827    1.0000 </r>
       <r>   -8.4030    1.0000 </r>
       <r>   -8.4030    1.0000 </r>
       <r>   -8.4000    1.0000 </r>
       <r>   -8.4000    1.0000 </r>
       <r>   -8.1722    1.0000 </r>
       <r>   -8.1722    1.0000 </r>
       <r>   -8.1705    1.0000 </r>
       <r>   -8.1705    1.0000 </r>
       <r>   -7.7717    1.0000 </r>
       <r>   -7.7717    1.0000 </r>
       <r>   -7.6326    1.0000 </r>
       <r>   -7.6326    1.0000 </r>
       <r>   -6.0016    1.0000 </r>
       <r>   -6.0016    1.0000 </r>
       <r>   -5.9788    1.0000 </r>
       <r>   -5.9788    1.0000 </r>
       <r>   -5.7620    1.0000 </r>
       <r>   -5.7620    1.0000 </r>
       <r>   -5.7470    1.0000 </r>
       <r>   -5.7470    1.0000 </r>
       <r>   -5.7367    1.0000 </r>
       <r>   -5.7367    1.0000 </r>
       <r>   -5.6086    1.0000 </r>
       <r>   -5.6085    1.0000 </r>
       <r>   -4.5687    1.0000 </r>
       <r>   -4.5687    1.0000 </r>
       <r>   -4.2550    1.0000 </r>
       <r>   -4.2550    1.0000 </r>
       <r>   -1.1197    1.0000 </r>
       <r>   -1.1197    1.0000 </r>
       <r>   -0.9691    1.0000 </r>
       <r>   -0.9691    1.0000 </r>
       <r>   -0.3007    1.0000 </r>
       <r>   -0.3007    1.0000 </r>
       <r>   -0.1953    1.0000 </r>
       <r>   -0.1953    1.0000 </r>
       <r>   -0.0452    1.0000 </r>
       <r>   -0.0452    1.0000 </r>
       <r>   -0.0154    1.0000 </r>
       <r>   -0.0154    1.0000 </r>
       <r>    0.0497    1.0000 </r>
       <r>    0.0497    1.0000 </r>
       <r>    0.3528    1.0000 </r>
       <r>    0.3528    1.0000 </r>
       <r>    0.3721    1.0000 </r>
       <r>    0.3721    1.0000 </r>
       <r>    0.4803    1.0000 </r>
       <r>    0.4803    1.0000 </r>
       <r>    0.5442    1.0000 </r>
       <r>    0.5442    1.0000 </r>
       <r>    0.6341    1.0000 </r>
       <r>    0.6341    1.0000 </r>
       <r>    0.6688    1.0000 </r>
       <r>    0.6688    1.0000 </r>
       <r>    0.7525    1.0000 </r>
       <r>    0.7526    1.0000 </r>
       <r>    0.8758    1.0000 </r>
       <r>    0.8758    1.0000 </r>
       <r>    0.9936    1.0000 </r>
       <r>    0.9936    1.0000 </r>
       <r>    1.0509    1.0000 </r>
       <r>    1.0509    1.0000 </r>
       <r>    1.2955    1.0000 </r>
       <r>    1.2955    1.0000 </r>
       <r>    1.3466    1.0000 </r>
       <r>    1.3466    1.0000 </r>
       <r>    1.3973    1.0000 </r>
       <r>    1.3973    1.0000 </r>
       <r>    1.4871    1.0000 </r>
       <r>    1.4871    1.0000 </r>
       <r>    1.6223    1.0000 </r>
[...]
       <r>    8.7975    0.0000 </r>
       <r>    8.8119    0.0000 </r>
       <r>    8.8119    0.0000 </r>
       <r>    8.8309    0.0000 </r>
       <r>    8.8309    0.0000 </r>
       <r>    8.8485    0.0000 </r>
       <r>    8.8485    0.0000 </r>
       <r>    9.7916    0.0000 </r>
       <r>    9.7916    0.0000 </r>
       <r>    9.8836    0.0000 </r>
       <r>    9.8836    0.0000 </r>
      </set>
     </set>
    </set>
   </array>
  </eigenvalues>
  <separator name="orbital magnetization" >
   <v name="MAGDIPOLOUT">      0.00000000      0.00000000      0.00000000</v>
  </separator>
  <dos>
   <i name="efermi">      4.35023834 </i>
   <total>
    <array>
     <dimension dim="1">gridpoints</dimension>
     <dimension dim="2">spin</dimension>
     <field>energy</field>
     <field>total</field>
     <field>integrated</field>
     <set>
      <set comment="spin 1">
       <r>   -42.3819     0.0000     0.0000 </r>
       <r>   -42.1981     0.0000     0.0000 </r>
       <r>   -42.0142     0.0000     0.0000 </r>
       <r>   -41.8303     0.0000     0.0000 </r>
       <r>   -41.6464     0.0000     0.0000 </r>
       <r>   -41.4625     0.0000     0.0000 </r>
       <r>   -41.2786     0.0000     0.0000 </r>
       <r>   -41.0947     0.0000     0.0000 </r>
       <r>   -40.9108     0.0000     0.0000 </r>
       <r>   -40.7269     0.0000     0.0000 </r>
       <r>   -40.5430     0.0000     0.0000 </r>
       <r>   -40.3591     0.0000     0.0000 </r>
       <r>   -40.1752     0.0000     0.0000 </r>
       <r>   -39.9913     0.0000     0.0000 </r>
       <r>   -39.8074     0.0000     8.0000 </r>
       <r>   -39.6235     0.0000     8.0000 </r>
       <r>   -39.4396     0.0000     8.0000 </r>
       <r>   -39.2557     0.0000     8.0000 </r>
       <r>   -39.0718     0.0000     8.0000 </r>
       <r>   -38.8879     0.0000     8.0000 </r>
       <r>   -38.7041     0.0000     8.0000 </r>
       <r>   -38.5202     0.0000     8.0000 </r>
       <r>   -38.3363     0.0000     8.0000 </r>
       <r>   -38.1524     0.0000     8.0000 </r>
       <r>   -37.9685     0.0000     8.0000 </r>
       <r>   -37.7846     0.0000     8.0000 </r>
       <r>   -37.6007     0.0000     8.0000 </r>
       <r>   -37.4168     0.0000     8.0000 </r>
       <r>   -37.2329     0.0000     8.0000 </r>
       <r>   -37.0490     0.0000     8.0000 </r>
       <r>   -36.8651     0.0000     8.0000 </r>
       <r>   -36.6812     0.0000     8.0000 </r>
       <r>   -36.4973     0.0000     8.0000 </r>
       <r>   -36.3134     0.0000     8.0000 </r>
       <r>   -36.1295     0.0000     8.0000 </r>
       <r>   -35.9456     0.0000     8.0000 </r>
       <r>   -35.7617     0.0000     8.0000 </r>
       <r>   -35.5778     0.0000     8.0000 </r>
       <r>   -35.3940     0.0000     8.0000 </r>
       <r>   -35.2101     0.0000     8.0000 </r>
       <r>   -35.0262     0.0000     8.0000 </r>
       <r>   -34.8423     0.0000     8.0000 </r>
       <r>   -34.6584     0.0000     8.0000 </r>
       <r>   -34.4745     0.0000     8.0000 </r>
       <r>   -34.2906     0.0000     8.0000 </r>
       <r>   -34.1067     0.0000     8.0000 </r>
       <r>   -33.9228     0.0000     8.0000 </r>
       <r>   -33.7389     0.0000     8.0000 </r>
       <r>   -33.5550     0.0000     8.0000 </r>
       <r>   -33.3711     0.0000     8.0000 </r>
       <r>   -33.1872     0.0000     8.0000 </r>
       <r>   -33.0033     0.0000     8.0000 </r>
       <r>   -32.8194     0.0000     8.0000 </r>
       <r>   -32.6355     0.0000     8.0000 </r>
       <r>   -32.4516     0.0000     8.0000 </r>
       <r>   -32.2677     0.0000     8.0000 </r>
       <r>   -32.0839     0.0000     8.0000 </r>
       <r>   -31.9000     0.0000     8.0000 </r>
       <r>   -31.7161     0.0000     8.0000 </r>
       <r>   -31.5322     0.0000     8.0000 </r>
       <r>   -31.3483     0.0000     8.0000 </r>
       <r>   -31.1644     0.0000     8.0000 </r>
       <r>   -30.9805     0.0000     8.0000 </r>
       <r>   -30.7966     0.0000     8.0000 </r>
       <r>   -30.6127     0.0000     8.0000 </r>
       <r>   -30.4288     0.0000     8.0000 </r>
       <r>   -30.2449     0.0000     8.0000 </r>
       <r>   -30.0610     0.0000     8.0000 </r>
       <r>   -29.8771     0.0000     8.0000 </r>
       <r>   -29.6932     0.0000     8.0000 </r>
       <r>   -29.5093     0.0000     8.0000 </r>
       <r>   -29.3254     0.0000     8.0000 </r>
       <r>   -29.1415     0.0000     8.0000 </r>
       <r>   -28.9576     0.0000     8.0000 </r>
       <r>   -28.7738     0.0000     8.0000 </r>
       <r>   -28.5899     0.0000     8.0000 </r>
       <r>   -28.4060     0.0000     8.0000 </r>
       <r>   -28.2221     0.0000     8.0000 </r>
       <r>   -28.0382     0.0000     8.0000 </r>
       <r>   -27.8543     0.0000     8.0000 </r>
       <r>   -27.6704     0.0000     8.0000 </r>
       <r>   -27.4865     0.0000     8.0000 </r>
       <r>   -27.3026     0.0000     8.0000 </r>
       <r>   -27.1187     0.0000     8.0000 </r>
       <r>   -26.9348     0.0000     8.0000 </r>
       <r>   -26.7509     0.0000     8.0000 </r>
       <r>   -26.5670     0.0000     8.0000 </r>
       <r>   -26.3831     0.0000     8.0000 </r>
       <r>   -26.1992     0.0000     8.0000 </r>
       <r>   -26.0153     0.0000     8.0000 </r>
       <r>   -25.8314     0.0000     8.0000 </r>
       <r>   -25.6475     0.0000     8.0000 </r>
       <r>   -25.4637     0.0000     8.0000 </r>
       <r>   -25.2798     0.0000     8.0000 </r>
       <r>   -25.0959     0.0000     8.0000 </r>
       <r>   -24.9120     0.0000     8.0000 </r>
       <r>   -24.7281     0.0000     8.0000 </r>
       <r>   -24.5442     0.0000     8.0000 </r>
       <r>   -24.3603     0.0000     8.0000 </r>
       <r>   -24.1764     0.0000     8.0000 </r>
       <r>   -23.9925     0.0000     8.0000 </r>
       <r>   -23.8086     0.0000     8.0000 </r>
       <r>   -23.6247     0.0000     8.0000 </r>
       <r>   -23.4408     0.0000     8.0000 </r>
       <r>   -23.2569     0.0000     8.0000 </r>
       <r>   -23.0730     0.0000     8.0000 </r>
       <r>   -22.8891     0.0000     8.0000 </r>
       <r>   -22.7052     0.0000     8.0000 </r>
       <r>   -22.5213     0.0000     8.0000 </r>
       <r>   -22.3374     0.0000     8.0000 </r>
       <r>   -22.1536     0.0000     8.0000 </r>
       <r>   -21.9697     0.0000     8.0000 </r>
       <r>   -21.7858     0.0000     8.0000 </r>
       <r>   -21.6019     0.0000     8.0000 </r>
       <r>   -21.4180     0.0000     8.0000 </r>
       <r>   -21.2341     0.0000     8.0000 </r>
       <r>   -21.0502     0.0000     8.0000 </r>
       <r>   -20.8663     0.0000     8.0000 </r>
       <r>   -20.6824     0.0000     8.0000 </r>
       <r>   -20.4985     0.0000     8.0000 </r>
       <r>   -20.3146     0.0000     8.0000 </r>
       <r>   -20.1307     0.0000     8.0000 </r>
       <r>   -19.9468     0.0000     8.0000 </r>
       <r>   -19.7629     0.0000     8.0000 </r>
       <r>   -19.5790     0.0000     8.0000 </r>
       <r>   -19.3951     0.0000     8.0000 </r>
       <r>   -19.2112     0.0000     8.0000 </r>
       <r>   -19.0273     0.0000     8.0000 </r>
       <r>   -18.8435     0.0000     8.0000 </r>
       <r>   -18.6596  3013.8378   100.6855 </r>
       <r>   -18.4757     0.0000   168.0000 </r>
       <r>   -18.2918     0.0000   168.0000 </r>
       <r>   -18.1079     0.0000   168.0000 </r>
       <r>   -17.9240     0.0000   168.0000 </r>
       <r>   -17.7401     0.0000   168.0000 </r>
       <r>   -17.5562     0.0000   168.0000 </r>
       <r>   -17.3723     0.0000   168.0000 </r>
       <r>   -17.1884     0.0000   168.0000 </r>
       <r>   -17.0045     0.0000   168.0000 </r>
       <r>   -16.8206     0.0000   168.0000 </r>
       <r>   -16.6367     0.0000   168.0000 </r>
       <r>   -16.4528     0.0000   168.0000 </r>
       <r>   -16.2689     0.0000   168.0000 </r>
       <r>   -16.0850     0.0000   168.0000 </r>
       <r>   -15.9011     0.0000   168.0000 </r>
       <r>   -15.7172     0.0000   168.0000 </r>
       <r>   -15.5334     0.0000   168.0000 </r>
       <r>   -15.3495     0.0000   168.0000 </r>
       <r>   -15.1656     0.0000   168.0000 </r>
       <r>   -14.9817     0.0000   168.0000 </r>
       <r>   -14.7978     0.0000   168.0000 </r>
       <r>   -14.6139     0.0000   168.0000 </r>
       <r>   -14.4300     0.0000   168.0000 </r>
       <r>   -14.2461     0.0000   168.0000 </r>
       <r>   -14.0622     0.0000   168.0000 </r>
       <r>   -13.8783     0.0000   168.0000 </r>
       <r>   -13.6944     0.0000   168.0000 </r>
       <r>   -13.5105     0.0000   168.0000 </r>
       <r>   -13.3266     0.0000   168.0000 </r>
       <r>   -13.1427     0.0000   168.0000 </r>
       <r>   -12.9588     0.0000   172.0000 </r>
       <r>   -12.7749   105.2324   183.3250 </r>
       <r>   -12.5910     0.0000   200.0000 </r>
       <r>   -12.4071     0.0000   200.0000 </r>
       <r>   -12.2233     0.0000   200.0000 </r>
       <r>   -12.0394     0.0000   200.0000 </r>
       <r>   -11.8555     0.0000   200.0000 </r>
       <r>   -11.6716     0.0000   200.0000 </r>
       <r>   -11.4877     0.0000   200.0000 </r>
       <r>   -11.3038     0.0000   200.0000 </r>
       <r>   -11.1199     0.0000   200.0000 </r>
       <r>   -10.9360     0.0000   200.0000 </r>
       <r>   -10.7521     0.0000   200.0000 </r>
       <r>   -10.5682     0.0000   200.0000 </r>
       <r>   -10.3843     0.0000   200.0000 </r>
       <r>   -10.2004     0.0000   200.0000 </r>
       <r>   -10.0165     0.0000   200.0000 </r>
       <r>    -9.8326     0.0000   200.0000 </r>
       <r>    -9.6487     0.0000   200.0000 </r>
       <r>    -9.4648     0.0000   200.0000 </r>
       <r>    -9.2809     4.3328   200.2002 </r>
       <r>    -9.0970    20.3802   202.6148 </r>
       <r>    -8.9132    22.5571   204.5092 </r>
       <r>    -8.7293     8.4608   207.2761 </r>
       <r>    -8.5454    24.8290   209.8877 </r>
       <r>    -8.3615    25.5023   215.3770 </r>
       <r>    -8.1776    26.7269   217.6371 </r>
       <r>    -7.9937    21.8611   222.5745 </r>
       <r>    -7.8098    18.6076   226.2957 </r>
       <r>    -7.6259    19.2424   230.0512 </r>
       <r>    -7.4420     1.7726   231.9834 </r>
       <r>    -7.2581     0.0000   232.0000 </r>
       <r>    -7.0742     0.0000   232.0000 </r>
       <r>    -6.8903     0.0000   232.0000 </r>
       <r>    -6.7064     0.0000   232.0000 </r>
       <r>    -6.5225     0.0000   232.0000 </r>
       <r>    -6.3386     4.4467   232.1416 </r>
       <r>    -6.1547    17.9122   234.1971 </r>
       <r>    -5.9708    35.9689   239.8290 </r>
       <r>    -5.7869    27.9397   243.5155 </r>
       <r>    -5.6031    29.5112   248.5974 </r>
       <r>    -5.4192    17.0874   252.6381 </r>
       <r>    -5.2353    11.5529   255.2819 </r>
       <r>    -5.0514     3.6408   256.2680 </r>
       <r>    -4.8675     7.7804   257.3538 </r>
       <r>    -4.6836    10.4706   259.0260 </r>
       <r>    -4.4997     4.8983   260.9139 </r>
       <r>    -4.3158     6.9468   261.9735 </r>
       <r>    -4.1319     5.0859   263.1820 </r>
       <r>    -3.9480     1.7569   263.8079 </r>
       <r>    -3.7641     0.4043   263.9833 </r>
       <r>    -3.5802     0.0000   264.0000 </r>
       <r>    -3.3963     0.0000   264.0000 </r>
       <r>    -3.2124     0.0000   264.0000 </r>
       <r>    -3.0285     0.0000   264.0000 </r>
       <r>    -2.8446     0.0000   264.0000 </r>
       <r>    -2.6607     0.0000   264.0000 </r>
       <r>    -2.4768     0.0000   264.0000 </r>
       <r>    -2.2929     0.0000   264.0000 </r>
       <r>    -2.1091     0.0000   264.0000 </r>
       <r>    -1.9252     0.0000   264.0000 </r>
       <r>    -1.7413     0.0000   264.0000 </r>
       <r>    -1.5574     0.0000   264.0000 </r>
       <r>    -1.3735     1.5312   264.0517 </r>
       <r>    -1.1896    10.2988   265.1707 </r>
       <r>    -1.0057    13.2640   267.0144 </r>
       <r>    -0.8218    10.1885   269.4014 </r>
       <r>    -0.6379     6.4543   270.9317 </r>
       <r>    -0.4540    12.2813   272.1242 </r>
       <r>    -0.2701    27.1714   276.1368 </r>
       <r>    -0.0862    36.7568   281.5186 </r>
       <r>     0.0977    38.5760   288.1880 </r>
       <r>     0.2816    59.1918   294.8341 </r>
       <r>     0.4655    35.6062   302.7872 </r>
       <r>     0.6494    35.0840   310.3324 </r>
       <r>     0.8333    37.1020   315.6367 </r>
       <r>     1.0172    49.0583   323.3201 </r>
       <r>     1.2010    45.5720   332.8878 </r>
       <r>     1.3849    50.7768   343.0870 </r>
       <r>     1.5688    42.6017   351.3877 </r>
       <r>     1.7527    62.8491   359.7203 </r>
       <r>     1.9366    50.8316   369.1827 </r>
       <r>     2.1205    42.5402   376.7219 </r>
       <r>     2.3044    37.8088   383.8871 </r>
       <r>     2.4883    65.4594   393.7772 </r>
       <r>     2.6722    83.1482   405.6561 </r>
       <r>     2.8561    94.9036   417.9710 </r>
       <r>     3.0400    45.2231   433.0555 </r>
       <r>     3.2239    25.8482   440.5206 </r>
       <r>     3.4078    55.9886   446.4048 </r>
       <r>     3.5917    13.6215   452.1244 </r>
       <r>     3.7756     9.2180   454.2245 </r>
       <r>     3.9595     4.8086   455.5143 </r>
       <r>     4.1434     0.4414   455.9930 </r>
       <r>     4.3273     0.0000   456.0000 </r>
       <r>     4.5111     0.0000   456.0000 </r>
       <r>     4.6950     0.0000   456.0000 </r>
       <r>     4.8789     0.0000   456.0000 </r>
       <r>     5.0628     0.2027   456.0039 </r>
       <r>     5.2467     3.2560   456.2863 </r>
       <r>     5.4306     6.8825   457.2183 </r>
       <r>     5.6145    10.5181   458.8181 </r>
       <r>     5.7984    15.1461   462.7898 </r>
       <r>     5.9823    12.8326   465.3622 </r>
       <r>     6.1662    11.4206   467.5469 </r>
       <r>     6.3501    12.7544   469.7537 </r>
       <r>     6.5340    14.2676   472.2388 </r>
       <r>     6.7179    15.7508   474.9993 </r>
       <r>     6.9018    17.7139   478.0498 </r>
       <r>     7.0857    24.3134   481.8012 </r>
       <r>     7.2696    43.7518   487.8643 </r>
       <r>     7.4535    30.1057   496.4343 </r>
       <r>     7.6374    32.3890   501.1239 </r>
       <r>     7.8212    57.6693   509.4530 </r>
       <r>     8.0051    26.4178   517.9500 </r>
       <r>     8.1890    18.5761   521.8353 </r>
       <r>     8.3729    21.0287   525.4803 </r>
       <r>     8.5568    23.9062   529.6045 </r>
       <r>     8.7407    40.0109   534.0537 </r>
       <r>     8.9246    32.7688   542.2706 </r>
       <r>     9.1085    16.9717   546.7103 </r>
       <r>     9.2924    11.3958   549.2383 </r>
       <r>     9.4763    16.7392   551.5201 </r>
       <r>     9.6602    11.4780   553.9527 </r>
       <r>     9.8441    12.6717   556.4720 </r>
       <r>    10.0280    10.0210   558.5574 </r>
       <r>    10.2119     2.9666   559.9146 </r>
       <r>    10.3958     0.0000   560.0000 </r>
       <r>    10.5797     0.0000   560.0000 </r>
       <r>    10.7636     0.0000   560.0000 </r>
       <r>    10.9475     0.0000   560.0000 </r>
       <r>    11.1313     0.0000   560.0000 </r>
       <r>    11.3152     0.0000   560.0000 </r>
       <r>    11.4991     0.0000   560.0000 </r>
       <r>    11.6830     0.0000   560.0000 </r>
       <r>    11.8669     0.0000   560.0000 </r>
       <r>    12.0508     0.0000   560.0000 </r>
       <r>    12.2347     0.0000   560.0000 </r>
       <r>    12.4186     0.0000   560.0000 </r>
       <r>    12.6025     0.0000   560.0000 </r>
       <r>    12.7864     0.0000   560.0000 </r>
      </set>
     </set>
    </array>
   </total>
  </dos>
 </calculation>
 <structure name="finalpos" >
  <crystal>
   <varray name="basis" >
    <v>      11.17850000       0.00000000       0.00000000 </v>
    <v>       0.00000000       9.57460000       0.00000000 </v>
    <v>       0.00000000       0.00000000      11.18240000 </v>
   </varray>
   <i name="volume">   1196.84853820 </i>
   <varray name="rec_basis" >
    <v>       0.08945744       0.00000000       0.00000000 </v>
    <v>       0.00000000       0.10444301       0.00000000 </v>
    <v>       0.00000000       0.00000000       0.08942624 </v>
   </varray>
  </crystal>
  <varray name="positions" >
   <v>       0.12539000       0.99984000       0.93687000 </v>
   <v>       0.37539000       0.00017000       0.93687000 </v>
   <v>       0.62539000       0.99984000       0.93687000 </v>
   <v>       0.87539000       0.00017000       0.93687000 </v>
   <v>       0.37539000       0.00017000       0.43687000 </v>
   <v>       0.37461000       0.00017000       0.18687000 </v>
   <v>       0.87539000       0.00017000       0.43687000 </v>
   <v>       0.87461000       0.00017000       0.18687000 </v>
   <v>       0.12461000       0.99984000       0.68687000 </v>
   <v>       0.62461000       0.99984000       0.68687000 </v>
   <v>       0.00013000       0.29519000       0.06281000 </v>
   <v>       0.25013000       0.70481000       0.06281000 </v>
   <v>       0.24987000       0.29519000       0.31282000 </v>
   <v>       0.49987000       0.70481000       0.31282000 </v>
   <v>       0.50013000       0.29519000       0.06281000 </v>
   <v>       0.75013000       0.70481000       0.06281000 </v>
   <v>       0.74987000       0.29519000       0.31282000 </v>
   <v>       0.99987000       0.70481000       0.31282000 </v>
   <v>       0.00013000       0.29519000       0.56281000 </v>
   <v>       0.25013000       0.70481000       0.56281000 </v>
   <v>       0.24987000       0.29519000       0.81282000 </v>
   <v>       0.49987000       0.70481000       0.81282000 </v>
   <v>       0.50013000       0.29519000       0.56281000 </v>
   <v>       0.75013000       0.70481000       0.56281000 </v>
   <v>       0.74987000       0.29519000       0.81282000 </v>
   <v>       0.99987000       0.70481000       0.81282000 </v>
   <v>       0.25005000       0.32677000       0.06286000 </v>
   <v>       0.00005000       0.67323000       0.06286000 </v>
   <v>       0.49995000       0.32677000       0.31286000 </v>
   <v>       0.24995000       0.67323000       0.31286000 </v>
   <v>       0.75005000       0.32677000       0.06286000 </v>
   <v>       0.50005000       0.67323000       0.06286000 </v>
   <v>       0.99995000       0.32677000       0.31286000 </v>
   <v>       0.74995000       0.67323000       0.31286000 </v>
   <v>       0.25005000       0.32677000       0.56286000 </v>
   <v>       0.00005000       0.67323000       0.56286000 </v>
   <v>       0.49995000       0.32677000       0.81286000 </v>
   <v>       0.24995000       0.67323000       0.81286000 </v>
   <v>       0.75005000       0.32677000       0.56286000 </v>
   <v>       0.50005000       0.67323000       0.56286000 </v>
   <v>       0.99995000       0.32677000       0.81286000 </v>
   <v>       0.74995000       0.67323000       0.81286000 </v>
   <v>       0.49987000       0.07798000       0.06246000 </v>
   <v>       0.24987000       0.92202000       0.06246000 </v>
   <v>       0.25013000       0.07798000       0.31246000 </v>
   <v>       0.00013000       0.92202000       0.31246000 </v>
   <v>       0.99987000       0.07798000       0.06246000 </v>
   <v>       0.74987000       0.92202000       0.06246000 </v>
   <v>       0.75013000       0.07798000       0.31246000 </v>
   <v>       0.50013000       0.92202000       0.31246000 </v>
   <v>       0.49987000       0.07798000       0.56246000 </v>
   <v>       0.24987000       0.92202000       0.56246000 </v>
   <v>       0.25013000       0.07798000       0.81246000 </v>
   <v>       0.00013000       0.92202000       0.81246000 </v>
   <v>       0.99987000       0.07798000       0.56246000 </v>
   <v>       0.74987000       0.92202000       0.56246000 </v>
   <v>       0.75013000       0.07798000       0.81246000 </v>
   <v>       0.50013000       0.92202000       0.81246000 </v>
  </varray>
 </structure>
</modeling>
