<?xml version="1.0" encoding="ISO-8859-1"?>
<modeling>
 <generator>
  <i name="program" type="string">vasp </i>
  <i name="version" type="string">5.4.4.18Apr17-6-g9f103f2a35  </i>
  <i name="subversion" type="string">(build Jul 31 2017 11:33:29) complex            parallel </i>
  <i name="platform" type="string">LinuxIFC </i>
  <i name="date" type="string">2021 09 21 </i>
  <i name="time" type="string">11:55:21 </i>
 </generator>
 <incar>
  <i type="string" name="SYSTEM"> La2O2S</i>
  <i type="string" name="PREC">normal</i>
  <i type="int" name="NELMIN">     4</i>
  <i type="int" name="IBRION">     2</i>
  <i type="int" name="NFREE">    10</i>
  <i name="EDIFF">      0.00000100</i>
  <i name="EDIFFG">     -0.01000000</i>
  <i type="int" name="NSW">   200</i>
  <i type="int" name="ISIF">     3</i>
  <i name="ENCUT">    600.00000000</i>
  <i name="ENAUG">    900.00000000</i>
  <i type="int" name="ISMEAR">    -5</i>
  <i type="logical" name="LWAVE"> F  </i>
  <i type="logical" name="LCHARG"> F  </i>
  <v type="int" name="KPOINT_BSE">    -1     0     0     0</v>
 </incar>
 <structure name="primitive_cell" >
  <crystal>
   <varray name="basis" >
    <v>      11.17850000       0.00000000       0.00000000 </v>
    <v>       0.00000000       9.57460000       0.00000000 </v>
    <v>       0.00000000       0.00000000      11.18240000 </v>
   </varray>
   <i name="volume">   1196.84853820 </i>
   <varray name="rec_basis" >
    <v>       0.08945744       0.00000000       0.00000000 </v>
    <v>       0.00000000       0.10444301       0.00000000 </v>
    <v>       0.00000000       0.00000000       0.08942624 </v>
   </varray>
  </crystal>
  <varray name="positions" >
   <v>       0.12461000      -0.00016000       0.18687000 </v>
   <v>      -0.00013000       0.07798000       0.06246000 </v>
   <v>       0.24987000      -0.07798000       0.06246000 </v>
   <v>       0.00013000      -0.07798000       0.31246000 </v>
   <v>       0.25013000       0.07798000       0.31246000 </v>
   <v>       0.37461000       0.00017000       0.18687000 </v>
   <v>       0.12539000      -0.00016000      -0.06313000 </v>
   <v>       0.00013000       0.29519000       0.06281000 </v>
   <v>       0.25013000      -0.29519000       0.06281000 </v>
   <v>      -0.00013000      -0.29519000       0.31282000 </v>
   <v>       0.24987000       0.29519000       0.31282000 </v>
   <v>       0.00005000      -0.32677000       0.06286000 </v>
   <v>       0.25005000       0.32677000       0.06286000 </v>
   <v>      -0.00005000       0.32677000       0.31286000 </v>
   <v>       0.24995000      -0.32677000       0.31286000 </v>
   <v>      -0.12461000       0.00017000       0.43687000 </v>
   <v>      -0.12461000       0.00017000      -0.06313000 </v>
   <v>       0.37539000       0.00017000      -0.06313000 </v>
   <v>       0.00013000      -0.07798000      -0.18754000 </v>
   <v>      -0.25013000      -0.07798000       0.06246000 </v>
   <v>      -0.24987000       0.07798000       0.31246000 </v>
   <v>       0.25013000       0.07798000      -0.18754000 </v>
   <v>       0.49987000       0.07798000       0.06246000 </v>
   <v>      -0.00013000       0.07798000      -0.43754000 </v>
   <v>      -0.49987000      -0.07798000       0.31246000 </v>
   <v>       0.24987000      -0.07798000      -0.43754000 </v>
   <v>      -0.00013000      -0.29519000      -0.18718000 </v>
   <v>      -0.24987000      -0.29519000       0.06281000 </v>
   <v>       0.24987000       0.29519000      -0.18718000 </v>
   <v>      -0.25013000       0.29519000       0.31282000 </v>
   <v>      -0.49987000       0.29519000       0.06281000 </v>
   <v>       0.49987000      -0.29519000       0.31282000 </v>
   <v>       0.00013000       0.29519000      -0.43719000 </v>
   <v>       0.25013000      -0.29519000      -0.43719000 </v>
   <v>      -0.00005000       0.32677000      -0.18714000 </v>
   <v>       0.24995000      -0.32677000      -0.18714000 </v>
   <v>      -0.24995000       0.32677000       0.06286000 </v>
   <v>      -0.25005000      -0.32677000       0.31286000 </v>
   <v>      -0.49995000      -0.32677000       0.06286000 </v>
   <v>       0.49995000       0.32677000       0.31286000 </v>
   <v>       0.00005000      -0.32677000      -0.43714000 </v>
   <v>       0.25005000       0.32677000      -0.43714000 </v>
   <v>      -0.37539000      -0.00016000       0.18687000 </v>
   <v>       0.12461000      -0.00016000      -0.31313000 </v>
   <v>      -0.24987000       0.07798000      -0.18754000 </v>
   <v>      -0.49987000      -0.07798000      -0.18754000 </v>
   <v>      -0.25013000      -0.07798000      -0.43754000 </v>
   <v>       0.49987000       0.07798000      -0.43754000 </v>
   <v>      -0.37461000      -0.00016000       0.43687000 </v>
   <v>      -0.37461000      -0.00016000      -0.06313000 </v>
   <v>      -0.12539000       0.00017000      -0.31313000 </v>
   <v>      -0.25013000       0.29519000      -0.18718000 </v>
   <v>       0.49987000      -0.29519000      -0.18718000 </v>
   <v>      -0.24987000      -0.29519000      -0.43719000 </v>
   <v>      -0.49987000       0.29519000      -0.43719000 </v>
   <v>      -0.25005000      -0.32677000      -0.18714000 </v>
   <v>       0.49995000       0.32677000      -0.18714000 </v>
   <v>      -0.24995000       0.32677000      -0.43714000 </v>
   <v>      -0.49995000      -0.32677000      -0.43714000 </v>
   <v>      -0.37539000      -0.00016000      -0.31313000 </v>
  </varray>
 </structure>
 <varray name="primitive_index" >
  <v type="int" >        1 </v>
  <v type="int" >       49 </v>
  <v type="int" >       46 </v>
  <v type="int" >       48 </v>
  <v type="int" >       47 </v>
  <v type="int" >        9 </v>
  <v type="int" >       11 </v>
  <v type="int" >       13 </v>
  <v type="int" >       14 </v>
  <v type="int" >       20 </v>
  <v type="int" >       15 </v>
  <v type="int" >       30 </v>
  <v type="int" >       29 </v>
  <v type="int" >       35 </v>
  <v type="int" >       32 </v>
  <v type="int" >        3 </v>
  <v type="int" >        6 </v>
  <v type="int" >        4 </v>
  <v type="int" >       56 </v>
  <v type="int" >       50 </v>
  <v type="int" >       51 </v>
  <v type="int" >       55 </v>
  <v type="int" >       45 </v>
  <v type="int" >       57 </v>
  <v type="int" >       52 </v>
  <v type="int" >       54 </v>
  <v type="int" >       28 </v>
  <v type="int" >       18 </v>
  <v type="int" >       23 </v>
  <v type="int" >       19 </v>
  <v type="int" >       17 </v>
  <v type="int" >       16 </v>
  <v type="int" >       21 </v>
  <v type="int" >       22 </v>
  <v type="int" >       43 </v>
  <v type="int" >       40 </v>
  <v type="int" >       33 </v>
  <v type="int" >       36 </v>
  <v type="int" >       34 </v>
  <v type="int" >       31 </v>
  <v type="int" >       38 </v>
  <v type="int" >       37 </v>
  <v type="int" >       10 </v>
  <v type="int" >       12 </v>
  <v type="int" >       59 </v>
  <v type="int" >       60 </v>
  <v type="int" >       58 </v>
  <v type="int" >       53 </v>
  <v type="int" >        2 </v>
  <v type="int" >        5 </v>
  <v type="int" >        8 </v>
  <v type="int" >       27 </v>
  <v type="int" >       24 </v>
  <v type="int" >       26 </v>
  <v type="int" >       25 </v>
  <v type="int" >       44 </v>
  <v type="int" >       39 </v>
  <v type="int" >       41 </v>
  <v type="int" >       42 </v>
  <v type="int" >        7 </v>
 </varray>
 <kpoints>
  <generation param="Gamma">
   <v type="int" name="divisions">       2        2        2 </v>
   <v name="usershift">      0.00000000       0.00000000       0.00000000 </v>
   <v name="genvec1">      0.50000000       0.00000000       0.00000000 </v>
   <v name="genvec2">      0.00000000       0.50000000       0.00000000 </v>
   <v name="genvec3">      0.00000000       0.00000000       0.50000000 </v>
   <v name="shift">      0.00000000       0.00000000       0.00000000 </v>
  </generation>
  <varray name="kpointlist" >
   <v>       0.00000000       0.00000000       0.00000000 </v>
   <v>       0.50000000       0.00000000       0.00000000 </v>
   <v>       0.00000000       0.50000000       0.00000000 </v>
   <v>       0.50000000       0.50000000       0.00000000 </v>
   <v>       0.00000000       0.00000000       0.50000000 </v>
   <v>       0.50000000       0.00000000       0.50000000 </v>
   <v>       0.00000000       0.50000000       0.50000000 </v>
   <v>       0.50000000       0.50000000       0.50000000 </v>
  </varray>
  <varray name="weights" >
   <v>       0.12500000 </v>
   <v>       0.12500000 </v>
   <v>       0.12500000 </v>
   <v>       0.12500000 </v>
   <v>       0.12500000 </v>
   <v>       0.12500000 </v>
   <v>       0.12500000 </v>
   <v>       0.12500000 </v>
  </varray>
  <varray name="tetrahedronlist"  type="int" >
   <v type="int" >        2        1        2        4        5 </v>
   <v type="int" >        2        1        3        4        5 </v>
   <v type="int" >        2        3        4        5        7 </v>
   <v type="int" >        2        2        4        5        6 </v>
   <v type="int" >        2        4        5        6        8 </v>
   <v type="int" >        2        4        5        7        8 </v>
   <v type="int" >        2        1        2        3        6 </v>
   <v type="int" >        2        2        3        4        6 </v>
   <v type="int" >        2        3        4        6        8 </v>
   <v type="int" >        2        1        3        5        6 </v>
   <v type="int" >        2        3        5        6        7 </v>
   <v type="int" >        2        3        6        7        8 </v>
   <v type="int" >        2        2        3        4        7 </v>
   <v type="int" >        2        1        2        3        7 </v>
   <v type="int" >        2        1        2        5        7 </v>
   <v type="int" >        2        2        4        7        8 </v>
   <v type="int" >        2        2        6        7        8 </v>
   <v type="int" >        2        2        5        6        7 </v>
   <v type="int" >        2        1        3        4        8 </v>
   <v type="int" >        2        1        2        4        8 </v>
   <v type="int" >        2        1        2        6        8 </v>
   <v type="int" >        2        1        3        7        8 </v>
   <v type="int" >        2        1        5        7        8 </v>
   <v type="int" >        2        1        5        6        8 </v>
  </varray>
  <i name="volumeweight">      0.02083333 </i>
 </kpoints>
 <parameters>
  <separator name="general" >
   <i type="string" name="SYSTEM">La2O2S</i>
   <i type="logical" name="LCOMPAT"> F  </i>
  </separator>
  <separator name="electronic" >
   <i type="string" name="PREC">normal</i>
   <i name="ENMAX">    600.00000000</i>
   <i name="ENAUG">    900.00000000</i>
   <i name="EDIFF">      0.00000100</i>
   <i type="int" name="IALGO">    38</i>
   <i type="int" name="IWAVPR">    11</i>
   <i type="int" name="NBANDS">   280</i>
   <i name="NELECT">    464.00000000</i>
   <i type="int" name="TURBO">     0</i>
   <i type="int" name="IRESTART">     0</i>
   <i type="int" name="NREBOOT">     0</i>
   <i type="int" name="NMIN">     0</i>
   <i name="EREF">      0.00000000</i>
   <separator name="electronic smearing" >
    <i type="int" name="ISMEAR">    -5</i>
    <i name="SIGMA">      0.20000000</i>
    <i name="KSPACING">      0.50000000</i>
    <i type="logical" name="KGAMMA"> T  </i>
   </separator>
   <separator name="electronic projectors" >
    <i type="logical" name="LREAL"> F  </i>
    <v name="ROPT">      0.00000000      0.00000000      0.00000000      0.00000000      0.00000000</v>
    <i type="int" name="LMAXPAW">  -100</i>
    <i type="int" name="LMAXMIX">     2</i>
    <i type="logical" name="NLSPLINE"> F  </i>
   </separator>
   <separator name="electronic startup" >
    <i type="int" name="ISTART">     0</i>
    <i type="int" name="ICHARG">     2</i>
    <i type="int" name="INIWAV">     1</i>
   </separator>
   <separator name="electronic spin" >
    <i type="int" name="ISPIN">     1</i>
    <i type="logical" name="LNONCOLLINEAR"> F  </i>
    <v name="MAGMOM">      1.00000000      1.00000000      1.00000000      1.00000000      1.00000000      1.00000000      1.00000000      1.00000000      1.00000000      1.00000000      1.00000000      1.00000000      1.00000000      1.00000000      1.00000000      1.00000000      1.00000000      1.00000000      1.00000000      1.00000000
      1.00000000      1.00000000      1.00000000      1.00000000      1.00000000      1.00000000      1.00000000      1.00000000      1.00000000      1.00000000      1.00000000      1.00000000      1.00000000      1.00000000      1.00000000      1.00000000      1.00000000      1.00000000      1.00000000      1.00000000
      1.00000000      1.00000000      1.00000000      1.00000000      1.00000000      1.00000000      1.00000000      1.00000000      1.00000000      1.00000000      1.00000000      1.00000000      1.00000000      1.00000000      1.00000000      1.00000000      1.00000000      1.00000000      1.00000000      1.00000000
</v>
    <i name="NUPDOWN">     -1.00000000</i>
    <i type="logical" name="LSORBIT"> F  </i>
    <v name="SAXIS">      0.00000000      0.00000000      1.00000000</v>
    <i type="logical" name="LSPIRAL"> F  </i>
    <v name="QSPIRAL">      0.00000000      0.00000000      0.00000000</v>
    <i type="logical" name="LZEROZ"> F  </i>
   </separator>
   <separator name="electronic exchange-correlation" >
    <i type="logical" name="LASPH"> F  </i>
    <i type="logical" name="LMETAGGA"> F  </i>
   </separator>
   <separator name="electronic convergence" >
    <i type="int" name="NELM">    60</i>
    <i type="int" name="NELMDL">    -5</i>
    <i type="int" name="NELMIN">     4</i>
    <i name="ENINI">    600.00000000</i>
    <separator name="electronic convergence detail" >
     <i type="logical" name="LDIAG"> T  </i>
     <i type="logical" name="LSUBROT"> F  </i>
     <i name="WEIMIN">      0.00100000</i>
     <i name="EBREAK">      0.00000000</i>
     <i name="DEPER">      0.30000000</i>
     <i type="int" name="NRMM">     4</i>
     <i name="TIME">      0.40000000</i>
    </separator>
   </separator>
   <separator name="electronic mixer" >
    <i name="AMIX">      0.40000000</i>
    <i name="BMIX">      1.00000000</i>
    <i name="AMIN">      0.10000000</i>
    <i name="AMIX_MAG">      1.60000000</i>
    <i name="BMIX_MAG">      1.00000000</i>
    <separator name="electronic mixer details" >
     <i type="int" name="IMIX">     4</i>
     <i type="logical" name="MIXFIRST"> F  </i>
     <i type="int" name="MAXMIX">   -45</i>
     <i name="WC">    100.00000000</i>
     <i type="int" name="INIMIX">     1</i>
     <i type="int" name="MIXPRE">     1</i>
     <i type="int" name="MREMOVE">     5</i>
    </separator>
   </separator>
   <separator name="electronic dipolcorrection" >
    <i type="logical" name="LDIPOL"> F  </i>
    <i type="logical" name="LMONO"> F  </i>
    <i type="int" name="IDIPOL">     0</i>
    <i name="EPSILON">      1.00000000</i>
    <v name="DIPOL">   -100.00000000   -100.00000000   -100.00000000</v>
    <i name="EFIELD">      0.00000000</i>
   </separator>
  </separator>
  <separator name="grids" >
   <i type="int" name="NGX">    70</i>
   <i type="int" name="NGY">    60</i>
   <i type="int" name="NGZ">    70</i>
   <i type="int" name="NGXF">   140</i>
   <i type="int" name="NGYF">   120</i>
   <i type="int" name="NGZF">   140</i>
   <i type="logical" name="ADDGRID"> F  </i>
  </separator>
  <separator name="ionic" >
   <i type="int" name="NSW">   200</i>
   <i type="int" name="IBRION">     2</i>
   <i type="int" name="MDALGO">     0</i>
   <i type="int" name="ISIF">     3</i>
   <i name="PSTRESS">      0.00000000</i>
   <i name="EDIFFG">     -0.01000000</i>
   <i type="int" name="NFREE">    10</i>
   <i name="POTIM">      0.50000000</i>
   <i name="SMASS">     -3.00000000</i>
   <i name="SCALEE">      1.00000000</i>
  </separator>
  <separator name="ionic md" >
   <i name="TEBEG">      0.00010000</i>
   <i name="TEEND">      0.00010000</i>
   <i type="int" name="NBLOCK">     1</i>
   <i type="int" name="KBLOCK">   200</i>
   <i type="int" name="NPACO">   256</i>
   <i name="APACO">     16.00000000</i>
  </separator>
  <separator name="symmetry" >
   <i type="int" name="ISYM">     2</i>
   <i name="SYMPREC">      0.00001000</i>
  </separator>
  <separator name="dos" >
   <i type="int" name="LORBIT">     0</i>
   <v name="RWIGS">     -1.00000000     -1.00000000     -1.00000000     -1.00000000     -1.00000000</v>
   <i type="int" name="NEDOS">   301</i>
   <i name="EMIN">     10.00000000</i>
   <i name="EMAX">    -10.00000000</i>
   <i name="EFERMI">      0.00000000</i>
  </separator>
  <separator name="writing" >
   <i type="int" name="NWRITE">     2</i>
   <i type="logical" name="LWAVE"> F  </i>
   <i type="logical" name="LDOWNSAMPLE"> F  </i>
   <i type="logical" name="LCHARG"> F  </i>
   <i type="logical" name="LPARD"> F  </i>
   <i type="logical" name="LVTOT"> F  </i>
   <i type="logical" name="LVHAR"> F  </i>
   <i type="logical" name="LELF"> F  </i>
   <i type="logical" name="LOPTICS"> F  </i>
   <v name="STM">      0.00000000      0.00000000      0.00000000      0.00000000      0.00000000      0.00000000      0.00000000</v>
  </separator>
  <separator name="performance" >
   <i type="int" name="NPAR">    28</i>
   <i type="int" name="NSIM">     4</i>
   <i type="int" name="NBLK">    -1</i>
   <i type="logical" name="LPLANE"> T  </i>
   <i type="logical" name="LSCALAPACK"> T  </i>
   <i type="logical" name="LSCAAWARE"> F  </i>
   <i type="logical" name="LSCALU"> F  </i>
   <i type="logical" name="LASYNC"> F  </i>
   <i type="logical" name="LORBITALREAL"> F  </i>
  </separator>
  <separator name="miscellaneous" >
   <i type="int" name="IDIOT">     3</i>
   <i type="int" name="ISPECIAL">     0</i>
   <i type="logical" name="LMUSIC"> F  </i>
   <v name="POMASS">      7.01000000     24.30500000    208.98000000     32.06600000     16.00000000</v>
   <v name="DARWINR">      0.00000000      0.00000000      0.00000000      0.00000000      0.00000000</v>
   <v name="DARWINV">      1.00000000      1.00000000      1.00000000      1.00000000      1.00000000</v>
   <i type="logical" name="LCORR"> T  </i>
  </separator>
  <i type="logical" name="GGA_COMPAT"> T  </i>
  <i type="logical" name="LBERRY"> F  </i>
  <i type="int" name="ICORELEVEL">     0</i>
  <i type="logical" name="LDAU"> F  </i>
  <i type="int" name="I_CONSTRAINED_M">     0</i>
  <separator name="electronic exchange-correlation" >
   <i type="string" name="GGA">--</i>
   <i type="int" name="VOSKOWN">     0</i>
   <i type="logical" name="LHFCALC"> F  </i>
   <i type="string" name="PRECFOCK"></i>
   <i type="logical" name="LSYMGRAD"> F  </i>
   <i type="logical" name="LHFONE"> F  </i>
   <i type="logical" name="LRHFCALC"> F  </i>
   <i type="logical" name="LTHOMAS"> F  </i>
   <i type="logical" name="LMODELHF"> F  </i>
   <i name="ENCUT4O">     -1.00000000</i>
   <i type="int" name="EXXOEP">     0</i>
   <i type="int" name="FOURORBIT">     0</i>
   <i name="AEXX">      0.00000000</i>
   <i name="HFALPHA">      0.00000000</i>
   <i name="MCALPHA">      0.00000000</i>
   <i name="ALDAX">      1.00000000</i>
   <i name="AGGAX">      1.00000000</i>
   <i name="ALDAC">      1.00000000</i>
   <i name="AGGAC">      1.00000000</i>
   <i type="int" name="NKREDX">     1</i>
   <i type="int" name="NKREDY">     1</i>
   <i type="int" name="NKREDZ">     1</i>
   <i type="logical" name="SHIFTRED"> F  </i>
   <i type="logical" name="ODDONLY"> F  </i>
   <i type="logical" name="EVENONLY"> F  </i>
   <i type="int" name="LMAXFOCK">     0</i>
   <i type="int" name="NMAXFOCKAE">     0</i>
   <i type="logical" name="LFOCKAEDFT"> F  </i>
   <i name="HFSCREEN">      0.00000000</i>
   <i name="HFSCREENC">      0.00000000</i>
   <i type="int" name="NBANDSGWLOW">     0</i>
  </separator>
  <separator name="vdW DFT" >
   <i type="logical" name="LUSE_VDW"> F  </i>
   <i name="Zab_VDW">     -0.84910000</i>
   <i name="PARAM1">      0.12340000</i>
   <i name="PARAM2">      1.00000000</i>
   <i name="PARAM3">      0.00000000</i>
  </separator>
  <separator name="model GW" >
   <i type="int" name="MODEL_GW">     0</i>
   <i name="MODEL_EPS0">     11.96848538</i>
   <i name="MODEL_ALPHA">      1.00000000</i>
  </separator>
  <separator name="linear response parameters" >
   <i type="logical" name="LEPSILON"> F  </i>
   <i type="logical" name="LRPA"> F  </i>
   <i type="logical" name="LNABLA"> F  </i>
   <i type="logical" name="LVEL"> F  </i>
   <i type="int" name="KINTER">     0</i>
   <i name="CSHIFT">      0.10000000</i>
   <i name="OMEGAMAX">     -1.00000000</i>
   <i name="DEG_THRESHOLD">      0.00200000</i>
   <i name="RTIME">     -0.10000000</i>
   <i name="WPLASMAI">      0.00000000</i>
   <v name="DFIELD">      0.00000000      0.00000000      0.00000000</v>
   <v name="WPLASMA">      0.00000000      0.00000000      0.00000000      0.00000000      0.00000000      0.00000000      0.00000000      0.00000000      0.00000000</v>
  </separator>
  <separator name="orbital magnetization" >
   <i type="logical" name="NUCIND"> F  </i>
   <v name="MAGPOS">      0.00000000      0.00000000      0.00000000</v>
   <i type="logical" name="LNICSALL"> T  </i>
   <i type="logical" name="ORBITALMAG"> F  </i>
   <i type="logical" name="LMAGBLOCH"> F  </i>
   <i type="logical" name="LCHIMAG"> F  </i>
   <i type="logical" name="LGAUGE"> T  </i>
   <i type="int" name="MAGATOM">     0</i>
   <v name="MAGDIPOL">      0.00000000      0.00000000      0.00000000</v>
   <v name="AVECCONST">      0.00000000      0.00000000      0.00000000</v>
  </separator>
  <separator name="response functions" >
   <i type="logical" name="LADDER"> F  </i>
   <i type="logical" name="LRPAFORCE"> F  </i>
   <i type="logical" name="LFXC"> F  </i>
   <i type="logical" name="LHARTREE"> T  </i>
   <i type="int" name="IBSE">     0</i>
   <v type="int" name="KPOINT">    -1     0     0     0</v>
   <i type="logical" name="LTCTE"> F  </i>
   <i type="logical" name="LTETE"> F  </i>
   <i type="logical" name="LTRIPLET"> F  </i>
   <i type="logical" name="LFXCEPS"> F  </i>
   <i type="logical" name="LFXHEG"> F  </i>
   <i type="int" name="NATURALO">     2</i>
   <i type="logical" name="L2ORDER"> F  </i>
   <i type="logical" name="LMP2LT"> F  </i>
   <i type="logical" name="LUSEW"> F  </i>
   <i name="ENCUTGW">     -2.00000000</i>
   <i name="ENCUTGWSOFT">     -2.00000000</i>
   <i name="ENCUTLF">     -1.00000000</i>
   <i type="int" name="LMAXMP2">    -1</i>
   <i name="SCISSOR">      0.00000000</i>
   <i type="int" name="NOMEGA">     0</i>
   <i type="int" name="NOMEGAR">     0</i>
   <i type="int" name="NBANDSGW">    -1</i>
   <i type="int" name="NBANDSO">    -1</i>
   <i type="int" name="NBANDSV">    -1</i>
   <i type="int" name="NELM">     1</i>
   <i type="int" name="NELMHF">     1</i>
   <i type="int" name="DIM">     3</i>
   <i type="int" name="ANTIRES">     0</i>
   <i name="OMEGAMAX">    -30.00000000</i>
   <i name="OMEGAMIN">    -30.00000000</i>
   <i name="OMEGATL">   -200.00000000</i>
   <i type="int" name="OMEGAGRID">   140</i>
   <i name="CSHIFT">     -0.10000000</i>
   <i type="logical" name="SELFENERGY"> F  </i>
   <i type="logical" name="LSPECTRAL"> F  </i>
   <i type="logical" name="LSPECTRALGW"> F  </i>
   <i type="logical" name="LSINGLES"> F  </i>
   <i type="logical" name="LFERMIGW"> F  </i>
   <i type="logical" name="ODDONLYGW"> F  </i>
   <i type="logical" name="EVENONLYGW"> F  </i>
   <i type="int" name="NKREDLFX">     1</i>
   <i type="int" name="NKREDLFY">     1</i>
   <i type="int" name="NKREDLFZ">     1</i>
   <i type="int" name="MAXMEM">  2800</i>
   <i type="int" name="TELESCOPE">     0</i>
   <i type="int" name="TAUPAR">     1</i>
   <i type="int" name="OMEGAPAR">    -1</i>
   <i name="LAMBDA">      1.00000000</i>
  </separator>
  <separator name="External order field" >
   <i name="OFIELD_KAPPA">      0.00000000</i>
   <v name="OFIELD_K">      0.00000000      0.00000000      0.00000000</v>
   <i name="OFIELD_Q6_NEAR">      0.00000000</i>
   <i name="OFIELD_Q6_FAR">      0.00000000</i>
   <i name="OFIELD_A">      0.00000000</i>
  </separator>
 </parameters>
 <atominfo>
  <atoms>      60 </atoms>
  <types>       5 </types>
  <array name="atoms" >
   <dimension dim="1">ion</dimension>
   <field type="string">element</field>
   <field type="int">atomtype</field>
   <set>
    <rc><c>Li</c><c>   1</c></rc>
    <rc><c>Li</c><c>   1</c></rc>
    <rc><c>Li</c><c>   1</c></rc>
    <rc><c>Li</c><c>   1</c></rc>
    <rc><c>Li</c><c>   1</c></rc>
    <rc><c>Li</c><c>   1</c></rc>
    <rc><c>Li</c><c>   1</c></rc>
    <rc><c>Li</c><c>   1</c></rc>
    <rc><c>Mg</c><c>   2</c></rc>
    <rc><c>Mg</c><c>   2</c></rc>
    <rc><c>Mg</c><c>   2</c></rc>
    <rc><c>Mg</c><c>   2</c></rc>
    <rc><c>Bi</c><c>   3</c></rc>
    <rc><c>Bi</c><c>   3</c></rc>
    <rc><c>Bi</c><c>   3</c></rc>
    <rc><c>Bi</c><c>   3</c></rc>
    <rc><c>Bi</c><c>   3</c></rc>
    <rc><c>Bi</c><c>   3</c></rc>
    <rc><c>Bi</c><c>   3</c></rc>
    <rc><c>Bi</c><c>   3</c></rc>
    <rc><c>Bi</c><c>   3</c></rc>
    <rc><c>Bi</c><c>   3</c></rc>
    <rc><c>Bi</c><c>   3</c></rc>
    <rc><c>Bi</c><c>   3</c></rc>
    <rc><c>Bi</c><c>   3</c></rc>
    <rc><c>Bi</c><c>   3</c></rc>
    <rc><c>Bi</c><c>   3</c></rc>
    <rc><c>Bi</c><c>   3</c></rc>
    <rc><c>S </c><c>   4</c></rc>
    <rc><c>S </c><c>   4</c></rc>
    <rc><c>S </c><c>   4</c></rc>
    <rc><c>S </c><c>   4</c></rc>
    <rc><c>S </c><c>   4</c></rc>
    <rc><c>S </c><c>   4</c></rc>
    <rc><c>S </c><c>   4</c></rc>
    <rc><c>S </c><c>   4</c></rc>
    <rc><c>S </c><c>   4</c></rc>
    <rc><c>S </c><c>   4</c></rc>
    <rc><c>S </c><c>   4</c></rc>
    <rc><c>S </c><c>   4</c></rc>
    <rc><c>S </c><c>   4</c></rc>
    <rc><c>S </c><c>   4</c></rc>
    <rc><c>S </c><c>   4</c></rc>
    <rc><c>S </c><c>   4</c></rc>
    <rc><c>O </c><c>   5</c></rc>
    <rc><c>O </c><c>   5</c></rc>
    <rc><c>O </c><c>   5</c></rc>
    <rc><c>O </c><c>   5</c></rc>
    <rc><c>O </c><c>   5</c></rc>
    <rc><c>O </c><c>   5</c></rc>
    <rc><c>O </c><c>   5</c></rc>
    <rc><c>O </c><c>   5</c></rc>
    <rc><c>O </c><c>   5</c></rc>
    <rc><c>O </c><c>   5</c></rc>
    <rc><c>O </c><c>   5</c></rc>
    <rc><c>O </c><c>   5</c></rc>
    <rc><c>O </c><c>   5</c></rc>
    <rc><c>O </c><c>   5</c></rc>
    <rc><c>O </c><c>   5</c></rc>
    <rc><c>O </c><c>   5</c></rc>
   </set>
  </array>
  <array name="atomtypes" >
   <dimension dim="1">type</dimension>
   <field type="int">atomspertype</field>
   <field type="string">element</field>
   <field>mass</field>
   <field>valence</field>
   <field type="string">pseudopotential</field>
   <set>
    <rc><c>   8</c><c>Li</c><c>      7.01000000</c><c>      3.00000000</c><c>  PAW_PBE Li_sv 10Sep2004               </c></rc>
    <rc><c>   4</c><c>Mg</c><c>     24.30500000</c><c>      2.00000000</c><c>  PAW_PBE Mg 13Apr2007                  </c></rc>
    <rc><c>  16</c><c>Bi</c><c>    208.98000000</c><c>     15.00000000</c><c>  PAW_PBE Bi_d 06Sep2000                </c></rc>
    <rc><c>  16</c><c>S </c><c>     32.06600000</c><c>      6.00000000</c><c>  PAW_PBE S 06Sep2000                   </c></rc>
    <rc><c>  16</c><c>O </c><c>     16.00000000</c><c>      6.00000000</c><c>  PAW_PBE O 08Apr2002                   </c></rc>
   </set>
  </array>
 </atominfo>
 <structure name="initialpos" >
  <crystal>
   <varray name="basis" >
    <v>      11.17850000       0.00000000       0.00000000 </v>
    <v>       0.00000000       9.57460000       0.00000000 </v>
    <v>       0.00000000       0.00000000      11.18240000 </v>
   </varray>
   <i name="volume">   1196.84853820 </i>
   <varray name="rec_basis" >
    <v>       0.08945744       0.00000000       0.00000000 </v>
    <v>       0.00000000       0.10444301       0.00000000 </v>
    <v>       0.00000000       0.00000000       0.08942624 </v>
   </varray>
  </crystal>
  <varray name="positions" >
   <v>       0.12461000       0.99984000       0.18687000 </v>
   <v>       0.62539000       0.99984000       0.43687000 </v>
   <v>       0.87539000       0.00017000       0.43687000 </v>
   <v>       0.37539000       0.00017000       0.93687000 </v>
   <v>       0.62539000       0.99984000       0.93687000 </v>
   <v>       0.87539000       0.00017000       0.93687000 </v>
   <v>       0.62461000       0.99984000       0.68687000 </v>
   <v>       0.87461000       0.00017000       0.68687000 </v>
   <v>       0.37461000       0.00017000       0.18687000 </v>
   <v>       0.62461000       0.99984000       0.18687000 </v>
   <v>       0.12539000       0.99984000       0.93687000 </v>
   <v>       0.12461000       0.99984000       0.68687000 </v>
   <v>       0.00013000       0.29519000       0.06281000 </v>
   <v>       0.25013000       0.70481000       0.06281000 </v>
   <v>       0.24987000       0.29519000       0.31282000 </v>
   <v>       0.49987000       0.70481000       0.31282000 </v>
   <v>       0.50013000       0.29519000       0.06281000 </v>
   <v>       0.75013000       0.70481000       0.06281000 </v>
   <v>       0.74987000       0.29519000       0.31282000 </v>
   <v>       0.99987000       0.70481000       0.31282000 </v>
   <v>       0.00013000       0.29519000       0.56281000 </v>
   <v>       0.25013000       0.70481000       0.56281000 </v>
   <v>       0.24987000       0.29519000       0.81282000 </v>
   <v>       0.49987000       0.70481000       0.81282000 </v>
   <v>       0.50013000       0.29519000       0.56281000 </v>
   <v>       0.75013000       0.70481000       0.56281000 </v>
   <v>       0.74987000       0.29519000       0.81282000 </v>
   <v>       0.99987000       0.70481000       0.81282000 </v>
   <v>       0.25005000       0.32677000       0.06286000 </v>
   <v>       0.00005000       0.67323000       0.06286000 </v>
   <v>       0.49995000       0.32677000       0.31286000 </v>
   <v>       0.24995000       0.67323000       0.31286000 </v>
   <v>       0.75005000       0.32677000       0.06286000 </v>
   <v>       0.50005000       0.67323000       0.06286000 </v>
   <v>       0.99995000       0.32677000       0.31286000 </v>
   <v>       0.74995000       0.67323000       0.31286000 </v>
   <v>       0.25005000       0.32677000       0.56286000 </v>
   <v>       0.00005000       0.67323000       0.56286000 </v>
   <v>       0.49995000       0.32677000       0.81286000 </v>
   <v>       0.24995000       0.67323000       0.81286000 </v>
   <v>       0.75005000       0.32677000       0.56286000 </v>
   <v>       0.50005000       0.67323000       0.56286000 </v>
   <v>       0.99995000       0.32677000       0.81286000 </v>
   <v>       0.74995000       0.67323000       0.81286000 </v>
   <v>       0.49987000       0.07798000       0.06246000 </v>
   <v>       0.24987000       0.92202000       0.06246000 </v>
   <v>       0.25013000       0.07798000       0.31246000 </v>
   <v>       0.00013000       0.92202000       0.31246000 </v>
   <v>       0.99987000       0.07798000       0.06246000 </v>
   <v>       0.74987000       0.92202000       0.06246000 </v>
   <v>       0.75013000       0.07798000       0.31246000 </v>
   <v>       0.50013000       0.92202000       0.31246000 </v>
   <v>       0.49987000       0.07798000       0.56246000 </v>
   <v>       0.24987000       0.92202000       0.56246000 </v>
   <v>       0.25013000       0.07798000       0.81246000 </v>
   <v>       0.00013000       0.92202000       0.81246000 </v>
   <v>       0.99987000       0.07798000       0.56246000 </v>
   <v>       0.74987000       0.92202000       0.56246000 </v>
   <v>       0.75013000       0.07798000       0.81246000 </v>
   <v>       0.50013000       0.92202000       0.81246000 </v>
  </varray>
 </structure>
 <calculation>
  <scstep>
   <time name="dav">   59.27   59.39</time>
   <time name="total">   59.35   59.48</time>
   <energy>
    <i name="alphaZ">   1067.11773629 </i>
    <i name="ewald"> -30632.84659368 </i>
    <i name="hartreedc"> -12718.91839822 </i>
    <i name="XCdc">   1321.21032772 </i>
    <i name="pawpsdc">  36729.48549953 </i>
    <i name="pawaedc"> -36149.63912807 </i>
    <i name="eentropy">      0.00000000 </i>
    <i name="bandstr">   1838.85101865 </i>
    <i name="atom">  44408.54722957 </i>
    <i name="e_fr_energy">   5863.80769177 </i>
    <i name="e_wo_entrp">   5863.80769177 </i>
    <i name="e_0_energy">   5863.80769177 </i>
   </energy>
  </scstep>
  <scstep>
   <time name="dav">   60.14   60.20</time>
   <time name="total">   60.15   60.21</time>
   <energy>
    <i name="e_fr_energy">    778.68649994 </i>
    <i name="e_wo_entrp">    778.68649994 </i>
    <i name="e_0_energy">    778.68649994 </i>
   </energy>
  </scstep>
  <scstep>
   <time name="dav">   69.11   69.27</time>
   <time name="total">   69.11   69.27</time>
   <energy>
    <i name="e_fr_energy">   -243.66266890 </i>
    <i name="e_wo_entrp">   -243.66266890 </i>
    <i name="e_0_energy">   -243.66266890 </i>
   </energy>
  </scstep>
  <scstep>
   <time name="dav">   70.92   71.02</time>
   <time name="total">   70.92   71.02</time>
   <energy>
    <i name="e_fr_energy">   -339.26535553 </i>
    <i name="e_wo_entrp">   -339.26535553 </i>
    <i name="e_0_energy">   -339.26535553 </i>
   </energy>
  </scstep>
  <scstep>
   <time name="dav">   95.82   95.92</time>
   <time name="total">   96.54   96.64</time>
   <energy>
    <i name="e_fr_energy">   -347.35582872 </i>
    <i name="e_wo_entrp">   -347.35582872 </i>
    <i name="e_0_energy">   -347.35582872 </i>
   </energy>
  </scstep>
  <scstep>
   <time name="dav">   84.52   84.58</time>
   <time name="total">   85.30   85.38</time>
   <energy>
    <i name="e_fr_energy">   -290.23219941 </i>
    <i name="e_wo_entrp">   -290.23219941 </i>
    <i name="e_0_energy">   -290.23219941 </i>
   </energy>
  </scstep>
  <scstep>
   <time name="dav">   64.54   64.59</time>
   <time name="total">   65.32   65.38</time>
   <energy>
    <i name="e_fr_energy">   -292.51747099 </i>
    <i name="e_wo_entrp">   -292.51747099 </i>
    <i name="e_0_energy">   -292.51747099 </i>
   </energy>
  </scstep>
  <scstep>
   <time name="dav">   76.98   76.99</time>
   <time name="total">   77.77   77.78</time>
   <energy>
    <i name="e_fr_energy">   -291.31990491 </i>
    <i name="e_wo_entrp">   -291.31990491 </i>
    <i name="e_0_energy">   -291.31990491 </i>
   </energy>
  </scstep>
  <scstep>
   <time name="dav">   70.94   70.94</time>
   <time name="total">   71.73   71.73</time>
   <energy>
    <i name="e_fr_energy">   -290.67699683 </i>
    <i name="e_wo_entrp">   -290.67699683 </i>
    <i name="e_0_energy">   -290.67699683 </i>
   </energy>
  </scstep>
  <scstep>
   <time name="dav">   74.17   74.18</time>
   <time name="total">   74.96   74.97</time>
   <energy>
    <i name="e_fr_energy">   -290.70689382 </i>
    <i name="e_wo_entrp">   -290.70689382 </i>
    <i name="e_0_energy">   -290.70689382 </i>
   </energy>
  </scstep>
  <scstep>
   <time name="dav">   65.43   65.44</time>
   <time name="total">   66.21   66.23</time>
   <energy>
    <i name="e_fr_energy">   -290.70466875 </i>
    <i name="e_wo_entrp">   -290.70466875 </i>
    <i name="e_0_energy">   -290.70466875 </i>
   </energy>
  </scstep>
  <scstep>
   <time name="dav">   90.87   90.88</time>
   <time name="total">   91.65   91.67</time>
   <energy>
    <i name="e_fr_energy">   -290.70696940 </i>
    <i name="e_wo_entrp">   -290.70696940 </i>
    <i name="e_0_energy">   -290.70696940 </i>
   </energy>
  </scstep>
  <scstep>
   <time name="dav">   68.89   68.90</time>
   <time name="total">   69.67   69.69</time>
   <energy>
    <i name="e_fr_energy">   -290.70938500 </i>
    <i name="e_wo_entrp">   -290.70938500 </i>
    <i name="e_0_energy">   -290.70938500 </i>
   </energy>
  </scstep>
  <scstep>
   <time name="dav">   74.06   74.08</time>
   <time name="total">   74.84   74.87</time>
   <energy>
    <i name="e_fr_energy">   -290.70956005 </i>
    <i name="e_wo_entrp">   -290.70956005 </i>
    <i name="e_0_energy">   -290.70956005 </i>
   </energy>
  </scstep>
  <scstep>
   <time name="dav">   69.74   69.76</time>
   <time name="total">   70.53   70.55</time>
   <energy>
    <i name="e_fr_energy">   -290.70961675 </i>
    <i name="e_wo_entrp">   -290.70961675 </i>
    <i name="e_0_energy">   -290.70961675 </i>
   </energy>
  </scstep>
  <scstep>
   <time name="dav">   73.45   73.46</time>
   <time name="total">   74.24   74.25</time>
   <energy>
    <i name="e_fr_energy">   -290.70967673 </i>
    <i name="e_wo_entrp">   -290.70967673 </i>
    <i name="e_0_energy">   -290.70967673 </i>
   </energy>
  </scstep>
  <scstep>
   <time name="dav">   77.57   77.56</time>
   <time name="total">   78.36   78.36</time>
   <energy>
    <i name="e_fr_energy">   -290.70968949 </i>
    <i name="e_wo_entrp">   -290.70968949 </i>
    <i name="e_0_energy">   -290.70968949 </i>
   </energy>
  </scstep>
  <scstep>
   <time name="dav">   61.67   61.74</time>
   <time name="total">   62.46   62.53</time>
   <energy>
    <i name="e_fr_energy">   -290.70969232 </i>
    <i name="e_wo_entrp">   -290.70969232 </i>
    <i name="e_0_energy">   -290.70969232 </i>
   </energy>
  </scstep>
  <scstep>
   <time name="dav">   59.09   59.19</time>
   <time name="total">   59.88   59.99</time>
   <energy>
    <i name="e_fr_energy">   -290.70969381 </i>
    <i name="e_wo_entrp">   -290.70969381 </i>
    <i name="e_0_energy">   -290.70969381 </i>
   </energy>
  </scstep>
  <scstep>
   <time name="dav">   48.64   48.65</time>
   <time name="total">   48.72   48.73</time>
   <energy>
    <i name="alphaZ">   1067.11773629 </i>
    <i name="ewald"> -30632.84659368 </i>
    <i name="hartreedc"> -12947.14743178 </i>
    <i name="XCdc">   1344.89915622 </i>
    <i name="pawpsdc">  43750.12142322 </i>
    <i name="pawaedc"> -43144.66314951 </i>
    <i name="eentropy">      0.00000000 </i>
    <i name="bandstr">  -4136.73806475 </i>
    <i name="atom">  44408.54722957 </i>
    <i name="e_fr_energy">   -290.70969442 </i>
    <i name="e_wo_entrp">   -290.70969442 </i>
    <i name="e_0_energy">   -290.70969442 </i>
   </energy>
  </scstep>
  <structure>
   <crystal>
    <varray name="basis" >
     <v>      11.17850000       0.00000000       0.00000000 </v>
     <v>       0.00000000       9.57460000       0.00000000 </v>
     <v>       0.00000000       0.00000000      11.18240000 </v>
    </varray>
    <i name="volume">   1196.84853820 </i>
    <varray name="rec_basis" >
     <v>       0.08945744       0.00000000       0.00000000 </v>
     <v>       0.00000000       0.10444301       0.00000000 </v>
     <v>       0.00000000       0.00000000       0.08942624 </v>
    </varray>
   </crystal>
   <varray name="positions" >
    <v>       0.12461000       0.99984000       0.18687000 </v>
    <v>       0.62539000       0.99984000       0.43687000 </v>
    <v>       0.87539000       0.00017000       0.43687000 </v>
    <v>       0.37539000       0.00017000       0.93687000 </v>
    <v>       0.62539000       0.99984000       0.93687000 </v>
    <v>       0.87539000       0.00017000       0.93687000 </v>
    <v>       0.62461000       0.99984000       0.68687000 </v>
    <v>       0.87461000       0.00017000       0.68687000 </v>
    <v>       0.37461000       0.00017000       0.18687000 </v>
    <v>       0.62461000       0.99984000       0.18687000 </v>
    <v>       0.12539000       0.99984000       0.93687000 </v>
    <v>       0.12461000       0.99984000       0.68687000 </v>
    <v>       0.00013000       0.29519000       0.06281000 </v>
    <v>       0.25013000       0.70481000       0.06281000 </v>
    <v>       0.24987000       0.29519000       0.31282000 </v>
    <v>       0.49987000       0.70481000       0.31282000 </v>
    <v>       0.50013000       0.29519000       0.06281000 </v>
    <v>       0.75013000       0.70481000       0.06281000 </v>
    <v>       0.74987000       0.29519000       0.31282000 </v>
    <v>       0.99987000       0.70481000       0.31282000 </v>
    <v>       0.00013000       0.29519000       0.56281000 </v>
    <v>       0.25013000       0.70481000       0.56281000 </v>
    <v>       0.24987000       0.29519000       0.81282000 </v>
    <v>       0.49987000       0.70481000       0.81282000 </v>
    <v>       0.50013000       0.29519000       0.56281000 </v>
    <v>       0.75013000       0.70481000       0.56281000 </v>
    <v>       0.74987000       0.29519000       0.81282000 </v>
    <v>       0.99987000       0.70481000       0.81282000 </v>
    <v>       0.25005000       0.32677000       0.06286000 </v>
    <v>       0.00005000       0.67323000       0.06286000 </v>
    <v>       0.49995000       0.32677000       0.31286000 </v>
    <v>       0.24995000       0.67323000       0.31286000 </v>
    <v>       0.75005000       0.32677000       0.06286000 </v>
    <v>       0.50005000       0.67323000       0.06286000 </v>
    <v>       0.99995000       0.32677000       0.31286000 </v>
    <v>       0.74995000       0.67323000       0.31286000 </v>
    <v>       0.25005000       0.32677000       0.56286000 </v>
    <v>       0.00005000       0.67323000       0.56286000 </v>
    <v>       0.49995000       0.32677000       0.81286000 </v>
    <v>       0.24995000       0.67323000       0.81286000 </v>
    <v>       0.75005000       0.32677000       0.56286000 </v>
    <v>       0.50005000       0.67323000       0.56286000 </v>
    <v>       0.99995000       0.32677000       0.81286000 </v>
    <v>       0.74995000       0.67323000       0.81286000 </v>
    <v>       0.49987000       0.07798000       0.06246000 </v>
    <v>       0.24987000       0.92202000       0.06246000 </v>
    <v>       0.25013000       0.07798000       0.31246000 </v>
    <v>       0.00013000       0.92202000       0.31246000 </v>
    <v>       0.99987000       0.07798000       0.06246000 </v>
    <v>       0.74987000       0.92202000       0.06246000 </v>
    <v>       0.75013000       0.07798000       0.31246000 </v>
    <v>       0.50013000       0.92202000       0.31246000 </v>
    <v>       0.49987000       0.07798000       0.56246000 </v>
    <v>       0.24987000       0.92202000       0.56246000 </v>
    <v>       0.25013000       0.07798000       0.81246000 </v>
    <v>       0.00013000       0.92202000       0.81246000 </v>
    <v>       0.99987000       0.07798000       0.56246000 </v>
    <v>       0.74987000       0.92202000       0.56246000 </v>
    <v>       0.75013000       0.07798000       0.81246000 </v>
    <v>       0.50013000       0.92202000       0.81246000 </v>
   </varray>
  </structure>
  <varray name="forces" >
   <v>      -0.81113882       0.06604196       1.22810592 </v>
   <v>      -0.38655394       0.17831966       0.58524603 </v>
   <v>       0.46198175      -0.13000258      -0.43603858 </v>
   <v>       0.49582622      -0.13531575      -1.03986333 </v>
   <v>       0.10439243      -0.19504677      -0.59081746 </v>
   <v>      -0.51610463       0.12593027       0.47921755 </v>
   <v>      -0.62612797       0.04692833      -0.24264223 </v>
   <v>      -0.40798629       0.12191690      -0.34476759 </v>
   <v>      -0.97956192       0.20802923       1.62974739 </v>
   <v>       1.81860701      -0.11793679       0.44680250 </v>
   <v>      -0.21894079       0.32221157       0.76082973 </v>
   <v>       1.17632481      -0.09531276      -2.33192069 </v>
   <v>      -0.29428169       0.13948890       0.54772928 </v>
   <v>      -0.13023654      -2.10602169       0.27110756 </v>
   <v>      -0.20861514      -0.90049166       0.71335133 </v>
   <v>      -0.15612752      -1.09123562       0.77825301 </v>
   <v>       0.11758471       2.10699993      -0.15655229 </v>
   <v>       0.28290591      -0.05128150       0.17387560 </v>
   <v>       0.34088674      -0.00518075       0.23911063 </v>
   <v>       0.04843666       1.91601323       0.24253208 </v>
   <v>       0.10070647       0.05799619      -0.51200637 </v>
   <v>       0.23448869       1.89897199      -0.36239990 </v>
   <v>       0.46691870       1.11865333      -0.64326999 </v>
   <v>      -0.01618881       0.90493719      -0.59982537 </v>
   <v>      -0.25759137      -1.93030545      -0.00356327 </v>
   <v>      -0.11344084      -0.03377837      -0.10121815 </v>
   <v>      -0.18000578       0.06130717      -0.32851448 </v>
   <v>      -0.24261438      -2.07305423      -0.33367466 </v>
   <v>       0.12966732       0.03314084      -0.23087694 </v>
   <v>       0.21458240      -0.02311337      -0.46159868 </v>
   <v>       0.09174646       0.08858598      -0.61731054 </v>
   <v>       0.34977122      -0.09189205      -0.60673580 </v>
   <v>      -0.20460963       0.04911866      -0.03290716 </v>
   <v>      -0.14628351      -0.00891565       0.18498160 </v>
   <v>      -0.08413261       0.17940693      -0.16916214 </v>
   <v>      -0.35783287      -0.15169907      -0.19229449 </v>
   <v>      -0.27487366       0.12112891       0.34412322 </v>
   <v>      -0.18758473      -0.18492868       0.52038257 </v>
   <v>      -0.06833794       0.12707254       0.50775267 </v>
   <v>      -0.32673740      -0.01385727       0.49843003 </v>
   <v>       0.23191900       0.26709164       0.08796374 </v>
   <v>       0.23572653      -0.19864773      -0.10049622 </v>
   <v>       0.16272319       0.05266756       0.14159727 </v>
   <v>       0.24129084      -0.16279347       0.13308196 </v>
   <v>      -0.17304546      -1.66602906       0.92844991 </v>
   <v>       0.16251851       1.60965057      -0.26585315 </v>
   <v>       0.63403535       0.57826771      -2.03301043 </v>
   <v>      -0.02817288      -1.65337743      -0.13407345 </v>
   <v>       1.24821589      -0.31672745      -1.41273720 </v>
   <v>      -1.25720333       0.13117805      -0.19347421 </v>
   <v>      -1.31547443       0.03179705      -0.06745979 </v>
   <v>       0.57933382       0.90261034      -1.96955004 </v>
   <v>       1.22128268       1.58112799      -0.04757398 </v>
   <v>      -1.09452340      -1.53116737       1.21336282 </v>
   <v>      -1.69724277      -0.99961997       0.99981656 </v>
   <v>       0.97156709       1.60545196       0.18410285 </v>
   <v>      -0.22796626       0.02445501       1.44660017 </v>
   <v>       0.14437817      -0.04749390       0.08433622 </v>
   <v>       0.22230893      -0.09163424       0.16512454 </v>
   <v>       0.49940981      -0.64963698       1.02617384 </v>
  </varray>
  <varray name="stress" >
   <v>      -2.63802383       0.61457641       3.02277024 </v>
   <v>       0.61457593     -13.01468755      -0.73244577 </v>
   <v>       3.02277010      -0.73244578      -4.57343972 </v>
  </varray>
  <energy>
   <i name="e_fr_energy">   -304.30536914 </i>
   <i name="e_wo_entrp">   -304.30536914 </i>
   <i name="e_0_energy">      0.00000000 </i>
  </energy>
  <time name="totalsc"> 1545.25 1546.38</time>
 </calculation>
 <calculation>
  <scstep>
   <time name="dav">   59.91   59.95</time>
   <time name="total">   60.69   60.74</time>
   <energy>
    <i name="alphaZ">   1080.20320862 </i>
    <i name="ewald"> -30742.11887044 </i>
    <i name="hartreedc"> -13001.01471331 </i>
    <i name="XCdc">   1352.12448129 </i>
    <i name="pawpsdc">  43750.30297061 </i>
    <i name="pawaedc"> -43144.84742686 </i>
    <i name="eentropy">      0.00000000 </i>
    <i name="bandstr">  -3992.56221313 </i>
    <i name="atom">  44408.54722957 </i>
    <i name="e_fr_energy">   -289.36533364 </i>
    <i name="e_wo_entrp">   -289.36533364 </i>
    <i name="e_0_energy">   -289.36533364 </i>
   </energy>
  </scstep>
  <scstep>
   <time name="dav">   69.35   69.49</time>
   <time name="total">   70.14   70.28</time>
   <energy>
    <i name="e_fr_energy">   -293.19957937 </i>
    <i name="e_wo_entrp">   -293.19957937 </i>
    <i name="e_0_energy">   -293.19957937 </i>
   </energy>
  </scstep>
  <scstep>
   <time name="dav">   90.37   90.58</time>
   <time name="total">   91.16   91.38</time>
   <energy>
    <i name="e_fr_energy">   -293.03402585 </i>
    <i name="e_wo_entrp">   -293.03402585 </i>
    <i name="e_0_energy">   -293.03402585 </i>
   </energy>
  </scstep>
  <scstep>
   <time name="dav">   73.96   74.13</time>
   <time name="total">   74.75   74.93</time>
   <energy>
    <i name="e_fr_energy">   -292.90787152 </i>
    <i name="e_wo_entrp">   -292.90787152 </i>
    <i name="e_0_energy">   -292.90787152 </i>
   </energy>
  </scstep>
  <scstep>
   <time name="dav">   76.27   76.41</time>
   <time name="total">   77.06   77.21</time>
   <energy>
    <i name="e_fr_energy">   -292.88856704 </i>
    <i name="e_wo_entrp">   -292.88856704 </i>
    <i name="e_0_energy">   -292.88856704 </i>
   </energy>
  </scstep>
  <scstep>
   <time name="dav">   76.05   76.17</time>
   <time name="total">   76.85   76.96</time>
   <energy>
    <i name="e_fr_energy">   -292.88735013 </i>
    <i name="e_wo_entrp">   -292.88735013 </i>
    <i name="e_0_energy">   -292.88735013 </i>
   </energy>
  </scstep>
  <scstep>
   <time name="dav">   87.90   88.04</time>
   <time name="total">   88.69   88.83</time>
   <energy>
    <i name="e_fr_energy">   -292.88670882 </i>
    <i name="e_wo_entrp">   -292.88670882 </i>
    <i name="e_0_energy">   -292.88670882 </i>
   </energy>
  </scstep>
  <scstep>
   <time name="dav">   73.52   73.58</time>
   <time name="total">   74.32   74.37</time>
   <energy>
    <i name="e_fr_energy">   -292.88651310 </i>
    <i name="e_wo_entrp">   -292.88651310 </i>
    <i name="e_0_energy">   -292.88651310 </i>
   </energy>
  </scstep>
  <scstep>
   <time name="dav">   73.57   73.57</time>
   <time name="total">   74.35   74.36</time>
   <energy>
    <i name="e_fr_energy">   -292.88656410 </i>
    <i name="e_wo_entrp">   -292.88656410 </i>
    <i name="e_0_energy">   -292.88656410 </i>
   </energy>
  </scstep>
  <scstep>
   <time name="dav">   78.01   78.14</time>
   <time name="total">   78.80   78.94</time>
   <energy>
    <i name="e_fr_energy">   -292.88657079 </i>
    <i name="e_wo_entrp">   -292.88657079 </i>
    <i name="e_0_energy">   -292.88657079 </i>
   </energy>
  </scstep>
  <scstep>
   <time name="dav">   68.25   68.37</time>
   <time name="total">   69.05   69.16</time>
   <energy>
    <i name="e_fr_energy">   -292.88657555 </i>
    <i name="e_wo_entrp">   -292.88657555 </i>
    <i name="e_0_energy">   -292.88657555 </i>
   </energy>
  </scstep>
  <scstep>
   <time name="dav">   70.84   71.06</time>
   <time name="total">   70.91   71.13</time>
   <energy>
    <i name="alphaZ">   1080.20320862 </i>
    <i name="ewald"> -30742.11887044 </i>
    <i name="hartreedc"> -12898.57524746 </i>
    <i name="XCdc">   1347.72738333 </i>
    <i name="pawpsdc">  44083.16021683 </i>
    <i name="pawaedc"> -43480.65941942 </i>
    <i name="eentropy">      0.00000000 </i>
    <i name="bandstr">  -4091.17107655 </i>
    <i name="atom">  44408.54722957 </i>
    <i name="e_fr_energy">   -292.88657551 </i>
    <i name="e_wo_entrp">   -292.88657551 </i>
    <i name="e_0_energy">   -292.88657551 </i>
   </energy>
  </scstep>
  <structure>
   <crystal>
    <varray name="basis" >
     <v>      11.16078787       0.00412637       0.02029538 </v>
     <v>       0.00353431       9.49975497      -0.00421216 </v>
     <v>       0.02030246      -0.00491948      11.15168245 </v>
    </varray>
    <i name="volume">   1182.35003614 </i>
    <varray name="rec_basis" >
     <v>       0.08959972      -0.00003341      -0.00016314 </v>
     <v>      -0.00003900       0.10526591       0.00004651 </v>
     <v>      -0.00016308       0.00003982       0.08967288 </v>
    </varray>
   </crystal>
   <varray name="positions" >
    <v>       0.12110940       0.00017276       0.19216824 </v>
    <v>       0.62372176       0.00073848       0.43939484 </v>
    <v>       0.87738376      -0.00048503       0.43498886 </v>
    <v>       0.37752982      -0.00051180       0.93238386 </v>
    <v>       0.62584052       0.99885724       0.93432112 </v>
    <v>       0.87316267       0.00080451       0.93893742 </v>
    <v>       0.62190784       0.00007645       0.68582320 </v>
    <v>       0.87284927       0.00078429       0.68538262 </v>
    <v>       0.37038254       0.00121818       0.19390099 </v>
    <v>       0.63245850       0.99924576       0.18879758 </v>
    <v>       0.12444513       0.00146350       0.94015234 </v>
    <v>       0.12968662       0.99935976       0.67680972 </v>
    <v>      -0.00114002       0.29589283       0.06517299 </v>
    <v>       0.24956794       0.69419858       0.06397960 </v>
    <v>       0.24896969       0.29065278       0.31589751 </v>
    <v>       0.49919621       0.69931169       0.31617751 </v>
    <v>       0.50063746       0.30580635       0.06213461 </v>
    <v>       0.75135093       0.70455161       0.06356013 </v>
    <v>       0.75134115       0.29516390       0.31385156 </v>
    <v>       0.00007904       0.71446404       0.31386632 </v>
    <v>       0.00056462       0.29548222       0.56060112 </v>
    <v>       0.25114197       0.71437818       0.56124655 </v>
    <v>       0.25188506       0.30082646       0.81004483 </v>
    <v>       0.49980013       0.70936962       0.81023226 </v>
    <v>       0.49901832       0.28546395       0.56279463 </v>
    <v>       0.74964043       0.70463980       0.56237333 </v>
    <v>       0.74909316       0.29549890       0.81140274 </v>
    <v>       0.99882296       0.69436469       0.81138047 </v>
    <v>       0.25060960       0.32693698       0.06186396 </v>
    <v>       0.00097607       0.67311354       0.06086859 </v>
    <v>       0.50034595       0.32721635       0.31019682 </v>
    <v>       0.25145950       0.67276699       0.31024245 </v>
    <v>       0.74916697       0.32701749       0.06271803 </v>
    <v>       0.49941869       0.67318508       0.06365804 </v>
    <v>       0.99958691       0.32767396       0.31213021 </v>
    <v>       0.74840571       0.67246565       0.31203041 </v>
    <v>       0.24886374       0.32738032       0.56434460 </v>
    <v>      -0.00075955       0.67229822       0.56510501 </v>
    <v>       0.49965508       0.32741027       0.81505053 </v>
    <v>       0.24853991       0.67316018       0.81501031 </v>
    <v>       0.75105088       0.32811577       0.56323949 </v>
    <v>       0.50106732       0.67222909       0.56242644 </v>
    <v>       0.00065226       0.32703537       0.81347087 </v>
    <v>       0.75099133       0.67240975       0.81343414 </v>
    <v>       0.49912319       0.06958553       0.06646548 </v>
    <v>       0.25057138       0.93013040       0.06131307 </v>
    <v>       0.25286628       0.08089366       0.30368927 </v>
    <v>       0.00000842       0.91368928       0.31188159 </v>
    <v>       0.00525688       0.07638413       0.05636523 </v>
    <v>       0.74444433       0.92268095       0.06162532 </v>
    <v>       0.74445285       0.07814021       0.31216897 </v>
    <v>       0.50263021       0.92656790       0.30396305 </v>
    <v>       0.50514065       0.08594668       0.56225476 </v>
    <v>       0.24514640       0.91430505       0.56769464 </v>
    <v>       0.24280527       0.07294331       0.81677337 </v>
    <v>       0.00432296       0.93010924       0.81325425 </v>
    <v>       0.99888617       0.07810322       0.56870086 </v>
    <v>       0.75049309       0.92178070       0.56282384 </v>
    <v>       0.75108941       0.07751829       0.81317237 </v>
    <v>       0.50228529       0.91874673       0.81688708 </v>
   </varray>
  </structure>
  <varray name="forces" >
   <v>      -0.51426402       0.05220055       0.66170267 </v>
   <v>      -0.35485121       0.07810508       0.29595107 </v>
   <v>       0.28118248      -0.06390056      -0.27031261 </v>
   <v>       0.21779197      -0.05501792      -0.46840485 </v>
   <v>      -0.05071083      -0.10899002      -0.20625793 </v>
   <v>      -0.22848201       0.06595247       0.25550344 </v>
   <v>      -0.39237943       0.01571622      -0.12594506 </v>
   <v>      -0.10796571       0.05926054      -0.06025693 </v>
   <v>       0.13744338      -0.16074391       0.12382741 </v>
   <v>       0.48178539      -0.02470031      -0.10331798 </v>
   <v>       0.07717453      -0.04594689       0.08571730 </v>
   <v>       0.26676092       0.22066150      -0.34187351 </v>
   <v>      -0.08536155      -0.03409130       0.09858311 </v>
   <v>       0.03115682       0.00624377       0.02063127 </v>
   <v>      -0.03169152       0.68574444       0.32319682 </v>
   <v>      -0.02768948       0.10777410       0.17142015 </v>
   <v>      -0.02771813      -0.15969939       0.02955856 </v>
   <v>       0.06725484      -0.17653128       0.05761521 </v>
   <v>       0.05594783       0.34773610       0.10056669 </v>
   <v>       0.00635612      -2.54285497       0.11515247 </v>
   <v>      -0.02443183       0.31517701      -0.06764545 </v>
   <v>       0.24829273      -2.27404536      -0.27147531 </v>
   <v>       0.07960712      -0.22749353      -0.14036424 </v>
   <v>      -0.08398335      -0.76684976      -0.16640182 </v>
   <v>      -0.22454914       2.34673243      -0.04244966 </v>
   <v>      -0.00462670      -0.35487944      -0.01355632 </v>
   <v>       0.03159890       0.17505914      -0.15958715 </v>
   <v>      -0.02208177       0.11352739      -0.15662094 </v>
   <v>       0.01622660       0.27062495      -0.06326533 </v>
   <v>       0.09351162      -0.09162007      -0.17712047 </v>
   <v>       0.01407277       0.21390276      -0.27208604 </v>
   <v>       0.18214716      -0.05523891      -0.30347219 </v>
   <v>      -0.07386855       0.07429483       0.01721550 </v>
   <v>      -0.04251479      -0.28870392       0.07920951 </v>
   <v>      -0.02224433       0.03751075      -0.08542632 </v>
   <v>      -0.19579736      -0.13306709      -0.10593007 </v>
   <v>      -0.19017815      -0.00310686       0.18644490 </v>
   <v>      -0.06617646      -0.18125353       0.24933872 </v>
   <v>      -0.00910719       0.09423688       0.20008221 </v>
   <v>      -0.13269054      -0.17814946       0.17650650 </v>
   <v>       0.13207995       0.23208921       0.01925030 </v>
   <v>       0.14052647      -0.07748656      -0.05187703 </v>
   <v>       0.06375582       0.30043424       0.06527390 </v>
   <v>       0.08605031      -0.17222318       0.05776995 </v>
   <v>       0.02992819       0.62972822       0.56439430 </v>
   <v>       0.04343971      -0.55596933       0.12177421 </v>
   <v>      -0.12711339      -0.52418401      -0.95364186 </v>
   <v>      -0.04547051       2.74599645      -0.03137061 </v>
   <v>       0.48104714       0.22044696      -0.46229539 </v>
   <v>      -0.59876135       0.01631093      -0.31551170 </v>
   <v>      -0.57677056      -0.11114836       0.34072488 </v>
   <v>       0.47467671      -0.49974070      -0.83166614 </v>
   <v>       1.09579059      -2.64808968      -0.00431714 </v>
   <v>      -0.50314811       2.20123118       0.52236044 </v>
   <v>      -0.83300828       0.56350765       0.23239397 </v>
   <v>       0.49632159      -0.61292245      -0.12376630 </v>
   <v>      -0.25450407      -0.10437756       0.66397323 </v>
   <v>       0.01678757       0.28948412      -0.01251907 </v>
   <v>       0.00179666      -0.14480159       0.02622081 </v>
   <v>       0.50162840       0.89813803       0.52637595 </v>
  </varray>
  <varray name="stress" >
   <v>       6.21856596      -2.42450037      -2.64182880 </v>
   <v>      -2.42450031      12.66637828       2.27693533 </v>
   <v>      -2.64182920       2.27693496       7.35095546 </v>
  </varray>
  <energy>
   <i name="e_fr_energy">   -306.62111797 </i>
   <i name="e_wo_entrp">   -306.62111797 </i>
   <i name="e_0_energy">      0.00000000 </i>
  </energy>
  <time name="totalsc"> 1012.31 1014.10</time>
 </calculation>
 <calculation>
  <scstep>
   <time name="dav">   64.67   64.81</time>
   <time name="total">   65.45   65.60</time>
   <energy>
    <i name="alphaZ">   1078.80776842 </i>
    <i name="ewald"> -30733.87239375 </i>
    <i name="hartreedc"> -12890.05232751 </i>
    <i name="XCdc">   1346.91672850 </i>
    <i name="pawpsdc">  44083.35861554 </i>
    <i name="pawaedc"> -43480.85859327 </i>
    <i name="eentropy">      0.00000000 </i>
    <i name="bandstr">  -4105.74944234 </i>
    <i name="atom">  44408.54722957 </i>
    <i name="e_fr_energy">   -292.90241483 </i>
    <i name="e_wo_entrp">   -292.90241483 </i>
    <i name="e_0_energy">   -292.90241483 </i>
   </energy>
  </scstep>
  <scstep>
   <time name="dav">   69.05   69.20</time>
   <time name="total">   69.84   69.99</time>
   <energy>
    <i name="e_fr_energy">   -292.94321295 </i>
    <i name="e_wo_entrp">   -292.94321295 </i>
    <i name="e_0_energy">   -292.94321295 </i>
   </energy>
  </scstep>
  <scstep>
   <time name="dav">   83.88   84.39</time>
   <time name="total">   84.67   85.19</time>
   <energy>
    <i name="e_fr_energy">   -292.94106012 </i>
    <i name="e_wo_entrp">   -292.94106012 </i>
    <i name="e_0_energy">   -292.94106012 </i>
   </energy>
  </scstep>
  <scstep>
   <time name="dav">   71.49   71.53</time>
   <time name="total">   72.28   72.32</time>
   <energy>
    <i name="e_fr_energy">   -292.93912328 </i>
    <i name="e_wo_entrp">   -292.93912328 </i>
    <i name="e_0_energy">   -292.93912328 </i>
   </energy>
  </scstep>
  <scstep>
   <time name="dav">   76.88   77.02</time>
   <time name="total">   77.68   77.81</time>
   <energy>
    <i name="e_fr_energy">   -292.93890316 </i>
    <i name="e_wo_entrp">   -292.93890316 </i>
    <i name="e_0_energy">   -292.93890316 </i>
   </energy>
  </scstep>
  <scstep>
   <time name="dav">   72.78   72.89</time>
   <time name="total">   73.57   73.69</time>
   <energy>
    <i name="e_fr_energy">   -292.93888505 </i>
    <i name="e_wo_entrp">   -292.93888505 </i>
    <i name="e_0_energy">   -292.93888505 </i>
   </energy>
  </scstep>
  <scstep>
   <time name="dav">   91.87   91.98</time>
   <time name="total">   92.66   92.77</time>
   <energy>
    <i name="e_fr_energy">   -292.93886849 </i>
    <i name="e_wo_entrp">   -292.93886849 </i>
    <i name="e_0_energy">   -292.93886849 </i>
   </energy>
  </scstep>
  <scstep>
   <time name="dav">   64.92   65.11</time>
   <time name="total">   65.71   65.91</time>
   <energy>
    <i name="e_fr_energy">   -292.93886251 </i>
    <i name="e_wo_entrp">   -292.93886251 </i>
    <i name="e_0_energy">   -292.93886251 </i>
   </energy>
  </scstep>
  <scstep>
   <time name="dav">   71.40   71.56</time>
   <time name="total">   72.20   72.36</time>
   <energy>
    <i name="e_fr_energy">   -292.93886085 </i>
    <i name="e_wo_entrp">   -292.93886085 </i>
    <i name="e_0_energy">   -292.93886085 </i>
   </energy>
  </scstep>
  <scstep>
   <time name="dav">   56.74   56.85</time>
   <time name="total">   56.82   56.93</time>
   <energy>
    <i name="alphaZ">   1078.80776842 </i>
    <i name="ewald"> -30733.87239375 </i>
    <i name="hartreedc"> -12901.09585741 </i>
    <i name="XCdc">   1347.39665583 </i>
    <i name="pawpsdc">  44036.15908247 </i>
    <i name="pawaedc"> -43433.14414021 </i>
    <i name="eentropy">      0.00000000 </i>
    <i name="bandstr">  -4095.73720660 </i>
    <i name="atom">  44408.54722957 </i>
    <i name="e_fr_energy">   -292.93886168 </i>
    <i name="e_wo_entrp">   -292.93886168 </i>
    <i name="e_0_energy">   -292.93886168 </i>
   </energy>
  </scstep>
  <structure>
   <crystal>
    <varray name="basis" >
     <v>      11.16266101       0.00368999       0.01814905 </v>
     <v>       0.00316054       9.50767019      -0.00376670 </v>
     <v>       0.01815538      -0.00439922      11.15493098 </v>
    </varray>
    <i name="volume">   1183.87940849 </i>
    <varray name="rec_basis" >
     <v>       0.08958462      -0.00002984      -0.00014582 </v>
     <v>      -0.00003484       0.10517827       0.00004154 </v>
     <v>      -0.00014577       0.00003556       0.08964670 </v>
    </varray>
   </crystal>
   <varray name="positions" >
    <v>       0.12148122       0.00013684       0.19160570 </v>
    <v>       0.62389899       0.00064250       0.43912674 </v>
    <v>       0.87717219      -0.00041502       0.43518876 </v>
    <v>       0.37730228      -0.00043879       0.93286004 </v>
    <v>       0.62579228       0.99896215       0.93459155 </v>
    <v>       0.87339901       0.00073667       0.93871772 </v>
    <v>       0.62219387       0.00005118       0.68593368 </v>
    <v>       0.87303550       0.00071882       0.68553999 </v>
    <v>       0.37083172       0.00110587       0.19315452 </v>
    <v>       0.63162751       0.99930936       0.18859470 </v>
    <v>       0.12454590       0.00129023       0.93980401 </v>
    <v>       0.12914694       0.99941173       0.67787758 </v>
    <v>      -0.00100502       0.29581773       0.06492213 </v>
    <v>       0.24962734       0.69532954       0.06385589 </v>
    <v>       0.24906549       0.29113618       0.31557116 </v>
    <v>       0.49926804       0.69989753       0.31582155 </v>
    <v>       0.50058393       0.30467483       0.06220590 </v>
    <v>       0.75122174       0.70457917       0.06348082 </v>
    <v>       0.75118552       0.29516669       0.31374245 </v>
    <v>       0.00005742       0.71343499       0.31375501 </v>
    <v>       0.00051816       0.29545121       0.56083544 </v>
    <v>       0.25103481       0.71335846       0.56141216 </v>
    <v>       0.25167128       0.30022592       0.81033929 </v>
    <v>       0.49980719       0.70888376       0.81050648 </v>
    <v>       0.49913574       0.28650058       0.56279644 </v>
    <v>       0.74969219       0.70465795       0.56241955 </v>
    <v>       0.74917518       0.29546602       0.81155287 </v>
    <v>       0.99893323       0.69547807       0.81153335 </v>
    <v>       0.25055014       0.32691927       0.06196969 </v>
    <v>       0.00087759       0.67312611       0.06107995 </v>
    <v>       0.50030351       0.32716894       0.31047930 </v>
    <v>       0.25129908       0.67281656       0.31052034 </v>
    <v>       0.74926049       0.32699108       0.06273291 </v>
    <v>       0.49948571       0.67318979       0.06357329 </v>
    <v>       0.99962526       0.32757763       0.31220749 </v>
    <v>       0.74856910       0.67254709       0.31211812 </v>
    <v>       0.24898970       0.32731513       0.56418691 </v>
    <v>      -0.00067340       0.67239737       0.56486682 </v>
    <v>       0.49968676       0.32734189       0.81481815 </v>
    <v>       0.24868968       0.67316744       0.81478201 </v>
    <v>       0.75094499       0.32797235       0.56319938 </v>
    <v>       0.50095944       0.67233585       0.56247266 </v>
    <v>       0.00057800       0.32700708       0.81340622 </v>
    <v>       0.75088111       0.67249719       0.81337349 </v>
    <v>       0.49920279       0.07048003       0.06604091 </v>
    <v>       0.25049714       0.92926602       0.06143450 </v>
    <v>       0.25257486       0.08058371       0.30461978 </v>
    <v>       0.00002090       0.91457726       0.31194324 </v>
    <v>       0.00468506       0.07655482       0.05701266 </v>
    <v>       0.74501890       0.92261030       0.06171276 </v>
    <v>       0.74505414       0.07812289       0.31219873 </v>
    <v>       0.50236390       0.92608373       0.30486442 </v>
    <v>       0.50458259       0.08509779       0.56227722 </v>
    <v>       0.24564749       0.91512686       0.56713893 </v>
    <v>       0.24358179       0.07347958       0.81631474 </v>
    <v>       0.00387925       0.92924718       0.81317050 </v>
    <v>       0.99899159       0.07808970       0.56803885 </v>
    <v>       0.75042715       0.92180621       0.56278539 </v>
    <v>       0.75098791       0.07756751       0.81309703 </v>
    <v>       0.50205773       0.91909548       0.81641815 </v>
   </varray>
  </structure>
  <varray name="forces" >
   <v>      -0.54540111       0.05093287       0.72313549 </v>
   <v>      -0.36111525       0.09095585       0.32860946 </v>
   <v>       0.30162207      -0.07227794      -0.28893553 </v>
   <v>       0.24883193      -0.06530757      -0.52852331 </v>
   <v>      -0.03586239      -0.11850843      -0.24745529 </v>
   <v>      -0.25812711       0.07179402       0.27898030 </v>
   <v>      -0.41874935       0.02062354      -0.13959142 </v>
   <v>      -0.13758684       0.06603826      -0.09083493 </v>
   <v>      -0.00516780      -0.09897264       0.31255432 </v>
   <v>       0.62863521      -0.03062676      -0.04046723 </v>
   <v>       0.03235741       0.00531026       0.16205949 </v>
   <v>       0.38863966       0.15808209      -0.57378604 </v>
   <v>      -0.10743680      -0.01473508       0.14827410 </v>
   <v>       0.01456772      -0.15008645       0.04898766 </v>
   <v>      -0.04808284       0.49173401       0.35561839 </v>
   <v>      -0.04240561       0.00274458       0.23963726 </v>
   <v>      -0.01203879       0.01013535       0.00882591 </v>
   <v>       0.08873547      -0.16304140       0.07093806 </v>
   <v>       0.08647714       0.30940772       0.11545941 </v>
   <v>       0.00993840      -1.85249727       0.12343937 </v>
   <v>      -0.01069992       0.28801963      -0.11429121 </v>
   <v>       0.22855027      -1.64639000      -0.26014271 </v>
   <v>       0.12259148      -0.11023308      -0.19861272 </v>
   <v>      -0.07470796      -0.55302000      -0.20748892 </v>
   <v>      -0.20799504       1.69273570      -0.03945748 </v>
   <v>      -0.01672867      -0.31771529      -0.02284879 </v>
   <v>       0.01023413       0.16177804      -0.17861059 </v>
   <v>      -0.04664164      -0.05123367      -0.17811934 </v>
   <v>       0.02881132       0.24672775      -0.08048347 </v>
   <v>       0.10716043      -0.08616096      -0.20814365 </v>
   <v>       0.02256914       0.20238045      -0.31113136 </v>
   <v>       0.20126674      -0.06149711      -0.33917519 </v>
   <v>      -0.08902914       0.07235076       0.01198192 </v>
   <v>      -0.05352653      -0.26139787       0.09058849 </v>
   <v>      -0.02978188       0.05331368      -0.09474096 </v>
   <v>      -0.21358917      -0.13610061      -0.11557057 </v>
   <v>      -0.19929594       0.01187674       0.20545788 </v>
   <v>      -0.07973591      -0.18372501       0.28164060 </v>
   <v>      -0.01604454       0.09907649       0.23509350 </v>
   <v>      -0.15420752      -0.16330296       0.21160460 </v>
   <v>       0.14314538       0.23678915       0.02707827 </v>
   <v>       0.15095540      -0.09168660      -0.05878665 </v>
   <v>       0.07437166       0.27594981       0.07335857 </v>
   <v>       0.10405161      -0.17159939       0.06567255 </v>
   <v>       0.00850171       0.45110756       0.60815993 </v>
   <v>       0.05407643      -0.38918534       0.07802833 </v>
   <v>      -0.01687796      -0.40524941      -1.08796794 </v>
   <v>      -0.04391124       2.06803619      -0.03655747 </v>
   <v>       0.58319603       0.15101881      -0.58368570 </v>
   <v>      -0.67448268       0.03253328      -0.29554591 </v>
   <v>      -0.66441775      -0.10332449       0.28564117 </v>
   <v>       0.48780258      -0.36741249      -0.96361254 </v>
   <v>       1.09013940      -2.00497759      -0.00867822 </v>
   <v>      -0.57478513       1.64918596       0.59950615 </v>
   <v>      -0.93781808       0.41756443       0.32725033 </v>
   <v>       0.55398911      -0.43793720      -0.08883164 </v>
   <v>      -0.25078590      -0.09277917       0.74978521 </v>
   <v>       0.03086511       0.25057505      -0.00194827 </v>
   <v>       0.02489619      -0.13825441       0.04122369 </v>
   <v>       0.50005733       0.70045818       0.57543466 </v>
  </varray>
  <varray name="stress" >
   <v>       5.04447817      -1.88841167      -1.99415526 </v>
   <v>      -1.88841160       7.86707930       1.75892794 </v>
   <v>      -1.99415524       1.75892804       5.84360580 </v>
  </varray>
  <energy>
   <i name="e_fr_energy">   -306.65812752 </i>
   <i name="e_wo_entrp">   -306.65812752 </i>
   <i name="e_0_energy">      0.00000000 </i>
  </energy>
  <time name="totalsc">  836.52  838.48</time>
 </calculation>
 <calculation>
  <scstep>
   <time name="dav">   63.88   63.95</time>
   <time name="total">   64.67   64.74</time>
   <energy>
    <i name="alphaZ">   1071.55008509 </i>
    <i name="ewald"> -30782.19194670 </i>
    <i name="hartreedc"> -12762.04485742 </i>
    <i name="XCdc">   1342.81076539 </i>
    <i name="pawpsdc">  44036.21341723 </i>
    <i name="pawaedc"> -43433.19792963 </i>
    <i name="eentropy">      0.00000000 </i>
    <i name="bandstr">  -4173.75981282 </i>
    <i name="atom">  44408.54722957 </i>
    <i name="e_fr_energy">   -292.07304929 </i>
    <i name="e_wo_entrp">   -292.07304929 </i>
    <i name="e_0_energy">   -292.07304929 </i>
   </energy>
  </scstep>
  <scstep>
   <time name="dav">   67.93   68.03</time>
   <time name="total">   68.72   68.82</time>
   <energy>
    <i name="e_fr_energy">   -293.70470573 </i>
    <i name="e_wo_entrp">   -293.70470573 </i>
    <i name="e_0_energy">   -293.70470573 </i>
   </energy>
  </scstep>
  <scstep>
   <time name="dav">   85.77   85.87</time>
   <time name="total">   86.56   86.67</time>
   <energy>
    <i name="e_fr_energy">   -293.67949284 </i>
    <i name="e_wo_entrp">   -293.67949284 </i>
    <i name="e_0_energy">   -293.67949284 </i>
   </energy>
  </scstep>
  <scstep>
   <time name="dav">   72.34   72.36</time>
   <time name="total">   73.13   73.16</time>
   <energy>
    <i name="e_fr_energy">   -293.64632939 </i>
    <i name="e_wo_entrp">   -293.64632939 </i>
    <i name="e_0_energy">   -293.64632939 </i>
   </energy>
  </scstep>
  <scstep>
   <time name="dav">   75.01   75.02</time>
   <time name="total">   75.79   75.81</time>
   <energy>
    <i name="e_fr_energy">   -293.62741737 </i>
    <i name="e_wo_entrp">   -293.62741737 </i>
    <i name="e_0_energy">   -293.62741737 </i>
   </energy>
  </scstep>
  <scstep>
   <time name="dav">   73.53   73.56</time>
   <time name="total">   74.32   74.35</time>
   <energy>
    <i name="e_fr_energy">   -293.62680303 </i>
    <i name="e_wo_entrp">   -293.62680303 </i>
    <i name="e_0_energy">   -293.62680303 </i>
   </energy>
  </scstep>
  <scstep>
   <time name="dav">   81.33   81.36</time>
   <time name="total">   82.13   82.16</time>
   <energy>
    <i name="e_fr_energy">   -293.62693836 </i>
    <i name="e_wo_entrp">   -293.62693836 </i>
    <i name="e_0_energy">   -293.62693836 </i>
   </energy>
  </scstep>
  <scstep>
   <time name="dav">   75.50   75.50</time>
   <time name="total">   76.30   76.29</time>
   <energy>
    <i name="e_fr_energy">   -293.62686512 </i>
    <i name="e_wo_entrp">   -293.62686512 </i>
    <i name="e_0_energy">   -293.62686512 </i>
   </energy>
  </scstep>
  <scstep>
   <time name="dav">   79.86   79.87</time>
   <time name="total">   80.65   80.66</time>
   <energy>
    <i name="e_fr_energy">   -293.62686150 </i>
    <i name="e_wo_entrp">   -293.62686150 </i>
    <i name="e_0_energy">   -293.62686150 </i>
   </energy>
  </scstep>
  <scstep>
   <time name="dav">   70.29   70.29</time>
   <time name="total">   71.08   71.08</time>
   <energy>
    <i name="e_fr_energy">   -293.62686559 </i>
    <i name="e_wo_entrp">   -293.62686559 </i>
    <i name="e_0_energy">   -293.62686559 </i>
   </energy>
  </scstep>
  <scstep>
   <time name="dav">   78.40   78.40</time>
   <time name="total">   79.20   79.20</time>
   <energy>
    <i name="e_fr_energy">   -293.62686671 </i>
    <i name="e_wo_entrp">   -293.62686671 </i>
    <i name="e_0_energy">   -293.62686671 </i>
   </energy>
  </scstep>
  <scstep>
   <time name="dav">   57.79   57.78</time>
   <time name="total">   58.58   58.58</time>
   <energy>
    <i name="e_fr_energy">   -293.62686874 </i>
    <i name="e_wo_entrp">   -293.62686874 </i>
    <i name="e_0_energy">   -293.62686874 </i>
   </energy>
  </scstep>
  <scstep>
   <time name="dav">   50.42   50.42</time>
   <time name="total">   50.49   50.50</time>
   <energy>
    <i name="alphaZ">   1071.55008509 </i>
    <i name="ewald"> -30782.19194670 </i>
    <i name="hartreedc"> -12820.84737017 </i>
    <i name="XCdc">   1345.57313610 </i>
    <i name="pawpsdc">  43707.97647554 </i>
    <i name="pawaedc"> -43100.38777491 </i>
    <i name="eentropy">      0.00000000 </i>
    <i name="bandstr">  -4123.84670420 </i>
    <i name="atom">  44408.54722957 </i>
    <i name="e_fr_energy">   -293.62686969 </i>
    <i name="e_wo_entrp">   -293.62686969 </i>
    <i name="e_0_energy">   -293.62686969 </i>
   </energy>
  </scstep>
  <structure>
   <crystal>
    <varray name="basis" >
     <v>      11.18935695      -0.00713952       0.01217010 </v>
     <v>      -0.00607325       9.52579071       0.00451998 </v>
     <v>       0.01218044       0.00531002      11.18236547 </v>
    </varray>
    <i name="volume">   1191.89790616 </i>
    <varray name="rec_basis" >
     <v>       0.08937078       0.00005703      -0.00009737 </v>
     <v>       0.00006704       0.10497823      -0.00004992 </v>
     <v>      -0.00009729      -0.00004249       0.08942664 </v>
    </varray>
   </crystal>
   <varray name="positions" >
    <v>       0.11796919       0.00050783       0.19648598 </v>
    <v>       0.62179713       0.00140500       0.44138558 </v>
    <v>       0.87913297      -0.00100082       0.43331845 </v>
    <v>       0.37909276      -0.00099999       0.92908428 </v>
    <v>       0.62579797       0.99803479       0.93267138 </v>
    <v>       0.87154234       0.00131298       0.94060947 </v>
    <v>       0.61950010       0.00023551       0.68498895 </v>
    <v>       0.87185282       0.00125804       0.68464854 </v>
    <v>       0.36935859       0.00097695       0.19688618 </v>
    <v>       0.63696935       0.99895110       0.18907424 </v>
    <v>       0.12435665       0.00187565       0.94161386 </v>
    <v>       0.13253594       0.00002775       0.67200039 </v>
    <v>      -0.00189608       0.29598718       0.06636000 </v>
    <v>       0.24949708       0.69093637       0.06446226 </v>
    <v>       0.24854988       0.29202005       0.31813094 </v>
    <v>       0.49885531       0.69802208       0.31798506 </v>
    <v>       0.50070575       0.30837479       0.06201318 </v>
    <v>       0.75201387       0.70368050       0.06403625 </v>
    <v>       0.75205249       0.29669452       0.31458336 </v>
    <v>       0.00017117       0.70755337       0.31463348 </v>
    <v>       0.00062306       0.29698158       0.55959602 </v>
    <v>       0.25235167       0.70846937       0.55977205 </v>
    <v>       0.25288129       0.30161486       0.80854727 </v>
    <v>       0.49947047       0.70770390       0.80874268 </v>
    <v>       0.49787464       0.29156471       0.56262790 </v>
    <v>       0.74945492       0.70302140       0.56217322 </v>
    <v>       0.74895465       0.29637524       0.81031240 </v>
    <v>       0.99838109       0.69163229       0.81028628 </v>
    <v>       0.25086408       0.32820167       0.06128803 </v>
    <v>       0.00165018       0.67265711       0.05951590 </v>
    <v>       0.50053764       0.32832644       0.30825080 </v>
    <v>       0.25267049       0.67235033       0.30818633 </v>
    <v>       0.74858185       0.32743577       0.06273630 </v>
    <v>       0.49904275       0.67187653       0.06423017 </v>
    <v>       0.99937604       0.32815299       0.31155727 </v>
    <v>       0.74713912       0.67160854       0.31134698 </v>
    <v>       0.24773873       0.32758506       0.56556687 </v>
    <v>      -0.00129031       0.67116567       0.56682798 </v>
    <v>       0.49951502       0.32805497       0.81656354 </v>
    <v>       0.24755284       0.67233354       0.81641525 </v>
    <v>       0.75189186       0.32961083       0.56344290 </v>
    <v>       0.50194670       0.67153580       0.56207355 </v>
[...]
       <r>    8.5681    0.0000 </r>
       <r>    8.5989    0.0000 </r>
       <r>    8.6463    0.0000 </r>
       <r>    8.6913    0.0000 </r>
       <r>    8.7527    0.0000 </r>
       <r>    8.8421    0.0000 </r>
       <r>    8.9747    0.0000 </r>
      </set>
     </set>
    </set>
   </array>
  </eigenvalues>
  <separator name="orbital magnetization" >
   <v name="MAGDIPOLOUT">      0.00000000      0.00000000      0.00000000</v>
  </separator>
  <dos>
   <i name="efermi">      4.10249175 </i>
   <total>
    <array>
     <dimension dim="1">gridpoints</dimension>
     <dimension dim="2">spin</dimension>
     <field>energy</field>
     <field>total</field>
     <field>integrated</field>
     <set>
      <set comment="spin 1">
       <r>   -42.5247     0.0000     0.0000 </r>
       <r>   -42.3427     0.0000     0.0000 </r>
       <r>   -42.1608     0.0000     0.0000 </r>
       <r>   -41.9788     0.0000     0.0000 </r>
       <r>   -41.7968     0.0000     0.0000 </r>
       <r>   -41.6149     0.0000     0.0000 </r>
       <r>   -41.4329     0.0000     0.0000 </r>
       <r>   -41.2510     0.0000     0.0000 </r>
       <r>   -41.0690     0.0000     0.0000 </r>
       <r>   -40.8870     0.0000     0.0000 </r>
       <r>   -40.7051     0.0000     0.0000 </r>
       <r>   -40.5231     0.0000     0.0000 </r>
       <r>   -40.3412     0.0000     0.0000 </r>
       <r>   -40.1592     0.0000     0.0000 </r>
       <r>   -39.9772     0.0000     2.0000 </r>
       <r>   -39.7953     0.0000     4.0000 </r>
       <r>   -39.6133     0.0000    10.0000 </r>
       <r>   -39.4314     0.0000    14.0000 </r>
       <r>   -39.2494     0.0000    16.0000 </r>
       <r>   -39.0674     0.0000    16.0000 </r>
       <r>   -38.8855     0.0000    16.0000 </r>
       <r>   -38.7035     0.0000    16.0000 </r>
       <r>   -38.5216     0.0000    16.0000 </r>
       <r>   -38.3396     0.0000    16.0000 </r>
       <r>   -38.1577     0.0000    16.0000 </r>
       <r>   -37.9757     0.0000    16.0000 </r>
       <r>   -37.7937     0.0000    16.0000 </r>
       <r>   -37.6118     0.0000    16.0000 </r>
       <r>   -37.4298     0.0000    16.0000 </r>
       <r>   -37.2479     0.0000    16.0000 </r>
       <r>   -37.0659     0.0000    16.0000 </r>
       <r>   -36.8839     0.0000    16.0000 </r>
       <r>   -36.7020     0.0000    16.0000 </r>
       <r>   -36.5200     0.0000    16.0000 </r>
       <r>   -36.3381     0.0000    16.0000 </r>
       <r>   -36.1561     0.0000    16.0000 </r>
       <r>   -35.9741     0.0000    16.0000 </r>
       <r>   -35.7922     0.0000    16.0000 </r>
       <r>   -35.6102     0.0000    16.0000 </r>
       <r>   -35.4283     0.0000    16.0000 </r>
       <r>   -35.2463     0.0000    16.0000 </r>
       <r>   -35.0643     0.0000    16.0000 </r>
       <r>   -34.8824     0.0000    16.0000 </r>
       <r>   -34.7004     0.0000    16.0000 </r>
       <r>   -34.5185     0.0000    16.0000 </r>
       <r>   -34.3365     0.0000    16.0000 </r>
       <r>   -34.1545     0.0000    16.0000 </r>
       <r>   -33.9726     0.0000    16.0000 </r>
       <r>   -33.7906     0.0000    16.0000 </r>
       <r>   -33.6087     0.0000    16.0000 </r>
       <r>   -33.4267     0.0000    16.0000 </r>
       <r>   -33.2447     0.0000    16.0000 </r>
       <r>   -33.0628     0.0000    16.0000 </r>
       <r>   -32.8808     0.0000    16.0000 </r>
       <r>   -32.6989     0.0000    16.0000 </r>
       <r>   -32.5169     0.0000    16.0000 </r>
       <r>   -32.3349     0.0000    16.0000 </r>
       <r>   -32.1530     0.0000    16.0000 </r>
       <r>   -31.9710     0.0000    16.0000 </r>
       <r>   -31.7891     0.0000    16.0000 </r>
       <r>   -31.6071     0.0000    16.0000 </r>
       <r>   -31.4251     0.0000    16.0000 </r>
       <r>   -31.2432     0.0000    16.0000 </r>
       <r>   -31.0612     0.0000    16.0000 </r>
       <r>   -30.8793     0.0000    16.0000 </r>
       <r>   -30.6973     0.0000    16.0000 </r>
       <r>   -30.5153     0.0000    16.0000 </r>
       <r>   -30.3334     0.0000    16.0000 </r>
       <r>   -30.1514     0.0000    16.0000 </r>
       <r>   -29.9695     0.0000    16.0000 </r>
       <r>   -29.7875     0.0000    16.0000 </r>
       <r>   -29.6055     0.0000    16.0000 </r>
       <r>   -29.4236     0.0000    16.0000 </r>
       <r>   -29.2416     0.0000    16.0000 </r>
       <r>   -29.0597     0.0000    16.0000 </r>
       <r>   -28.8777     0.0000    16.0000 </r>
       <r>   -28.6957     0.0000    16.0000 </r>
       <r>   -28.5138     0.0000    16.0000 </r>
       <r>   -28.3318     0.0000    16.0000 </r>
       <r>   -28.1499     0.0000    16.0000 </r>
       <r>   -27.9679     0.0000    16.0000 </r>
       <r>   -27.7859     0.0000    16.0000 </r>
       <r>   -27.6040     0.0000    16.0000 </r>
       <r>   -27.4220     0.0000    16.0000 </r>
       <r>   -27.2401     0.0000    16.0000 </r>
       <r>   -27.0581     0.0000    16.0000 </r>
       <r>   -26.8761     0.0000    16.0000 </r>
       <r>   -26.6942     0.0000    16.0000 </r>
       <r>   -26.5122     0.0000    16.0000 </r>
       <r>   -26.3303     0.0000    16.0000 </r>
       <r>   -26.1483     0.0000    16.0000 </r>
       <r>   -25.9663     0.0000    16.0000 </r>
       <r>   -25.7844     0.0000    16.0000 </r>
       <r>   -25.6024     0.0000    16.0000 </r>
       <r>   -25.4205     0.0000    16.0000 </r>
       <r>   -25.2385     0.0000    16.0000 </r>
       <r>   -25.0566     0.0000    16.0000 </r>
       <r>   -24.8746     0.0000    16.0000 </r>
       <r>   -24.6926     0.0000    16.0000 </r>
       <r>   -24.5107     0.0000    16.0000 </r>
       <r>   -24.3287     0.0000    16.0000 </r>
       <r>   -24.1468     0.0000    16.0000 </r>
       <r>   -23.9648     0.0000    16.0000 </r>
       <r>   -23.7828     0.0000    16.0000 </r>
       <r>   -23.6009     0.0000    16.0000 </r>
       <r>   -23.4189     0.0000    16.0000 </r>
       <r>   -23.2370     0.0000    16.0000 </r>
       <r>   -23.0550     0.0000    16.0000 </r>
       <r>   -22.8730     0.0000    16.0000 </r>
       <r>   -22.6911     0.0000    16.0000 </r>
       <r>   -22.5091     0.0000    16.0000 </r>
       <r>   -22.3272     0.0000    16.0000 </r>
       <r>   -22.1452     0.0000    16.0000 </r>
       <r>   -21.9632     0.0000    16.0000 </r>
       <r>   -21.7813     0.0000    16.0000 </r>
       <r>   -21.5993     0.0000    16.0000 </r>
       <r>   -21.4174     0.0000    16.0000 </r>
       <r>   -21.2354     0.0000    16.0000 </r>
       <r>   -21.0534     0.0000    16.0000 </r>
       <r>   -20.8715     0.0000    16.0000 </r>
       <r>   -20.6895     0.0000    16.0000 </r>
       <r>   -20.5076     0.0000    16.0000 </r>
       <r>   -20.3256     0.0000    16.0000 </r>
       <r>   -20.1436     0.0000    16.0000 </r>
       <r>   -19.9617     0.0000    16.0000 </r>
       <r>   -19.7797     0.0000    16.0000 </r>
       <r>   -19.5978     0.0000    16.0000 </r>
       <r>   -19.4158     0.0000    16.0000 </r>
       <r>   -19.2338     0.0000    16.0000 </r>
       <r>   -19.0519     0.0000    16.0000 </r>
       <r>   -18.8699     0.0000    26.0000 </r>
       <r>   -18.6880     0.0000   106.0000 </r>
       <r>   -18.5060     0.0000   160.0000 </r>
       <r>   -18.3240     0.0000   176.0000 </r>
       <r>   -18.1421     0.0000   176.0000 </r>
       <r>   -17.9601     0.0000   176.0000 </r>
       <r>   -17.7782     0.0000   176.0000 </r>
       <r>   -17.5962     0.0000   176.0000 </r>
       <r>   -17.4142     0.0000   176.0000 </r>
       <r>   -17.2323     0.0000   176.0000 </r>
       <r>   -17.0503     0.0000   176.0000 </r>
       <r>   -16.8684     0.0000   176.0000 </r>
       <r>   -16.6864     0.0000   176.0000 </r>
       <r>   -16.5044     0.0000   176.0000 </r>
       <r>   -16.3225     0.0000   176.0000 </r>
       <r>   -16.1405     0.0000   176.0000 </r>
       <r>   -15.9586     0.0000   176.0000 </r>
       <r>   -15.7766     0.0000   176.0000 </r>
       <r>   -15.5946     0.0000   176.0000 </r>
       <r>   -15.4127     0.0000   176.0000 </r>
       <r>   -15.2307     0.0000   176.0000 </r>
       <r>   -15.0488     0.0000   176.0000 </r>
       <r>   -14.8668     0.0000   176.0000 </r>
       <r>   -14.6848     0.0000   176.0000 </r>
       <r>   -14.5029     0.0000   176.0000 </r>
       <r>   -14.3209     0.0000   176.0000 </r>
       <r>   -14.1390     0.0000   176.0000 </r>
       <r>   -13.9570     0.0000   176.0000 </r>
       <r>   -13.7750     0.0000   176.0000 </r>
       <r>   -13.5931     0.0000   176.0000 </r>
       <r>   -13.4111     0.0000   176.0000 </r>
       <r>   -13.2292     0.0000   180.0000 </r>
       <r>   -13.0472     0.0000   184.0000 </r>
       <r>   -12.8653     4.6869   190.0004 </r>
       <r>   -12.6833     0.0000   200.0000 </r>
       <r>   -12.5013     0.0000   206.0000 </r>
       <r>   -12.3194     0.0000   208.0000 </r>
       <r>   -12.1374     0.0000   208.0000 </r>
       <r>   -11.9555     0.0000   208.0000 </r>
       <r>   -11.7735     0.0000   208.0000 </r>
       <r>   -11.5915     0.0000   208.0000 </r>
       <r>   -11.4096     0.0000   208.0000 </r>
       <r>   -11.2276     0.0000   208.0000 </r>
       <r>   -11.0457     0.0000   208.0000 </r>
       <r>   -10.8637     0.0000   208.0000 </r>
       <r>   -10.6817     0.0000   208.0000 </r>
       <r>   -10.4998     0.0000   208.0000 </r>
       <r>   -10.3178     0.0000   208.0000 </r>
       <r>   -10.1359     0.0000   208.0000 </r>
       <r>    -9.9539     0.0000   208.0000 </r>
       <r>    -9.7719     0.0000   208.0000 </r>
       <r>    -9.5900     0.0000   208.0000 </r>
       <r>    -9.4080     6.9112   208.2397 </r>
       <r>    -9.2261     5.7209   210.0365 </r>
       <r>    -9.0441     5.6802   211.8025 </r>
       <r>    -8.8621    16.7378   212.7069 </r>
       <r>    -8.6802     0.0000   216.0000 </r>
       <r>    -8.4982    31.8153   219.4681 </r>
       <r>    -8.3163    10.5155   223.6710 </r>
       <r>    -8.1343    35.2350   225.5700 </r>
       <r>    -7.9523    27.7685   232.4499 </r>
       <r>    -7.7704     0.0000   236.0000 </r>
       <r>    -7.5884    17.2204   239.2941 </r>
       <r>    -7.4065     0.0000   240.0000 </r>
       <r>    -7.2245     0.0000   240.0000 </r>
       <r>    -7.0425     0.0000   240.0000 </r>
       <r>    -6.8606     0.0000   240.0000 </r>
       <r>    -6.6786     0.0000   240.0000 </r>
       <r>    -6.4967     0.0000   240.0000 </r>
       <r>    -6.3147    15.1649   240.7389 </r>
       <r>    -6.1327    20.4818   246.0400 </r>
       <r>    -5.9508     9.9296   248.5192 </r>
       <r>    -5.7688    33.7033   253.0527 </r>
       <r>    -5.5869    15.4889   257.4459 </r>
       <r>    -5.4049    18.6085   261.2802 </r>
       <r>    -5.2229     5.9017   263.6658 </r>
       <r>    -5.0410     7.5457   264.4436 </r>
       <r>    -4.8590    13.9118   266.5651 </r>
       <r>    -4.6771     4.2795   268.2629 </r>
       <r>    -4.4951     6.5039   269.1551 </r>
       <r>    -4.3131     9.1095   270.7225 </r>
       <r>    -4.1312     2.5244   271.5871 </r>
       <r>    -3.9492     1.1051   271.9171 </r>
       <r>    -3.7673     0.0101   271.9999 </r>
       <r>    -3.5853     0.0000   272.0000 </r>
       <r>    -3.4033     0.0000   272.0000 </r>
       <r>    -3.2214     0.0000   272.0000 </r>
       <r>    -3.0394     0.0000   272.0000 </r>
       <r>    -2.8575     0.0000   272.0000 </r>
       <r>    -2.6755     0.0000   272.0000 </r>
       <r>    -2.4935     0.0000   272.0000 </r>
       <r>    -2.3116     0.0000   272.0000 </r>
       <r>    -2.1296     0.0000   272.0000 </r>
       <r>    -1.9477     0.0000   272.0000 </r>
       <r>    -1.7657     0.0000   272.0000 </r>
       <r>    -1.5837     0.0000   272.0000 </r>
       <r>    -1.4018     0.2186   272.0015 </r>
       <r>    -1.2198     8.4629   272.8480 </r>
       <r>    -1.0379     6.2899   274.2860 </r>
       <r>    -0.8559    14.0291   276.0217 </r>
       <r>    -0.6740    11.0844   278.4824 </r>
       <r>    -0.4920    17.2727   280.5888 </r>
       <r>    -0.3100    33.8673   285.4935 </r>
       <r>    -0.1281    40.6704   291.6053 </r>
       <r>     0.0539    32.2837   298.7522 </r>
       <r>     0.2358    37.5076   305.7441 </r>
       <r>     0.4178    38.5083   312.8915 </r>
       <r>     0.5998    34.8645   318.8836 </r>
       <r>     0.7817    54.2901   325.7525 </r>
       <r>     0.9637    46.8160   333.1343 </r>
       <r>     1.1456    46.4554   341.6925 </r>
       <r>     1.3276    55.4243   350.0229 </r>
       <r>     1.5096    43.3509   358.8364 </r>
       <r>     1.6915    48.9660   366.5663 </r>
       <r>     1.8735    40.7210   374.7375 </r>
       <r>     2.0554    50.6455   383.3249 </r>
       <r>     2.2374    60.6560   393.1769 </r>
       <r>     2.4194    61.0230   404.2067 </r>
       <r>     2.6013    51.2916   416.0413 </r>
       <r>     2.7833    65.3802   426.8193 </r>
       <r>     2.9652    59.7004   437.8654 </r>
       <r>     3.1472    31.8796   446.5207 </r>
       <r>     3.3292    47.9772   452.6631 </r>
       <r>     3.5111    20.1967   458.8516 </r>
       <r>     3.6931    12.8423   462.0038 </r>
       <r>     3.8750     5.0605   463.6322 </r>
       <r>     4.0570     0.0524   463.9997 </r>
       <r>     4.2390     0.0000   464.0000 </r>
       <r>     4.4209     0.0000   464.0000 </r>
       <r>     4.6029     0.0000   464.0000 </r>
       <r>     4.7848     0.0000   464.0000 </r>
       <r>     4.9668     0.0000   464.0000 </r>
       <r>     5.1488     1.6523   464.0673 </r>
       <r>     5.3307     7.8671   464.9242 </r>
       <r>     5.5127    10.1229   466.7188 </r>
       <r>     5.6946    23.7300   469.3095 </r>
       <r>     5.8766    14.9824   473.0886 </r>
       <r>     6.0586    13.4775   475.6449 </r>
       <r>     6.2405    13.7166   478.0959 </r>
       <r>     6.4225    14.8813   480.6918 </r>
       <r>     6.6044    16.4490   483.5285 </r>
       <r>     6.7864    19.0482   486.7325 </r>
       <r>     6.9684    22.4691   490.5402 </r>
       <r>     7.1503    23.4037   494.5866 </r>
       <r>     7.3323    40.9192   499.9245 </r>
       <r>     7.5142    28.0854   506.4113 </r>
       <r>     7.6962    32.1841   511.9933 </r>
       <r>     7.8782    30.5747   518.0791 </r>
       <r>     8.0601    28.7734   523.5405 </r>
       <r>     8.2421    29.1974   528.7872 </r>
       <r>     8.4240    32.0052   534.2452 </r>
       <r>     8.6060    39.8617   540.7532 </r>
       <r>     8.7880    32.5018   547.2530 </r>
       <r>     8.9699    22.6417   552.2650 </r>
       <r>     9.1519    16.9515   555.7316 </r>
       <r>     9.3338    15.7328   558.4323 </r>
       <r>     9.5158     5.0860   559.8639 </r>
       <r>     9.6978     0.0000   560.0000 </r>
       <r>     9.8797     0.0000   560.0000 </r>
       <r>    10.0617     0.0000   560.0000 </r>
       <r>    10.2436     0.0000   560.0000 </r>
       <r>    10.4256     0.0000   560.0000 </r>
       <r>    10.6076     0.0000   560.0000 </r>
       <r>    10.7895     0.0000   560.0000 </r>
       <r>    10.9715     0.0000   560.0000 </r>
       <r>    11.1534     0.0000   560.0000 </r>
       <r>    11.3354     0.0000   560.0000 </r>
       <r>    11.5173     0.0000   560.0000 </r>
       <r>    11.6993     0.0000   560.0000 </r>
       <r>    11.8813     0.0000   560.0000 </r>
       <r>    12.0632     0.0000   560.0000 </r>
      </set>
     </set>
    </array>
   </total>
  </dos>
 </calculation>
 <structure name="finalpos" >
  <crystal>
   <varray name="basis" >
    <v>      11.22058823       0.02238774      -0.04119984 </v>
    <v>       0.02176655       9.57875016      -0.00272511 </v>
    <v>      -0.04056513       0.00012120      11.23516687 </v>
   </varray>
   <i name="volume">   1207.52539616 </i>
   <varray name="rec_basis" >
    <v>       0.08912347      -0.00020243       0.00032179 </v>
    <v>      -0.00020831       0.10439823      -0.00000188 </v>
    <v>       0.00032677       0.00002458       0.08900742 </v>
   </varray>
  </crystal>
  <varray name="positions" >
   <v>       0.09610436       0.02990305       0.29453141 </v>
   <v>       0.66092696       0.01806894       0.46862058 </v>
   <v>       0.91019311      -0.02387117       0.48270348 </v>
   <v>       0.36310674      -0.01599005       0.88181196 </v>
   <v>       0.61405540       0.99795674       0.93795401 </v>
   <v>       0.84542120       0.02729088       0.98332697 </v>
   <v>       0.62453517      -0.00420508       0.70268516 </v>
   <v>       0.87615263       0.00039330       0.71264068 </v>
   <v>       0.36708935      -0.00175098       0.16309618 </v>
   <v>       0.62818731      -0.00010552       0.18920065 </v>
   <v>       0.12023273      -0.00796894       0.94383512 </v>
   <v>       0.12995408       0.01424086       0.67918025 </v>
   <v>       0.00091448       0.30960186       0.05892306 </v>
   <v>       0.25315226       0.68696951       0.05214865 </v>
   <v>       0.25061809       0.30316857       0.30859539 </v>
   <v>       0.49548898       0.68685034       0.30383754 </v>
   <v>       0.50154366       0.31664026       0.06261384 </v>
   <v>       0.74857152       0.69945548       0.05874460 </v>
   <v>       0.74572302       0.30402033       0.31463181 </v>
   <v>      -0.00454861       0.69998986       0.31378839 </v>
   <v>      -0.00325824       0.30862773       0.56315780 </v>
   <v>       0.25080993       0.70350647       0.55519777 </v>
   <v>       0.24713454       0.31241781       0.80771084 </v>
   <v>       0.50695639       0.69741079       0.80381923 </v>
   <v>       0.50157729       0.28788625       0.56535551 </v>
   <v>       0.75226558       0.69732618       0.56150301 </v>
   <v>       0.74840879       0.29630423       0.81084919 </v>
   <v>       0.00660829       0.68986076       0.80541801 </v>
   <v>       0.25034271       0.35635182       0.05582233 </v>
   <v>       0.00723736       0.71327727       0.05057871 </v>
   <v>       0.49843322       0.35404354       0.30683779 </v>
   <v>       0.24864824       0.66701875       0.29780606 </v>
   <v>       0.75196679       0.34066253       0.05623473 </v>
   <v>       0.50569025       0.63729087       0.05146718 </v>
   <v>       0.00068538       0.28442630       0.31050349 </v>
   <v>       0.74712147       0.66241588       0.30193315 </v>
   <v>       0.24581835       0.27486656       0.56108978 </v>
   <v>       0.00406293       0.63686886       0.55462679 </v>
   <v>       0.50199478       0.33558865       0.80990921 </v>
   <v>       0.25199422       0.64180352       0.80240350 </v>
   <v>       0.75095998       0.35580361       0.55630180 </v>
   <v>       0.50551704       0.68205301       0.55339805 </v>
   <v>       0.00201782       0.36481300       0.81211692 </v>
   <v>       0.75226903       0.65265050       0.80591754 </v>
   <v>       0.50540497       0.09335266       0.07579029 </v>
   <v>       0.26887897       0.91117170       0.02828651 </v>
   <v>       0.25157635       0.09563948       0.26261584 </v>
   <v>      -0.01189875       0.90513174       0.34768893 </v>
   <v>      -0.00117815       0.09842948       0.02886447 </v>
   <v>       0.72308967       0.91619291       0.05861196 </v>
   <v>       0.71268303       0.09261383       0.31964792 </v>
   <v>       0.49241238       0.89746775       0.25647890 </v>
   <v>       0.54942185       0.08755402       0.57435064 </v>
   <v>       0.22760099       0.90721091       0.57439970 </v>
   <v>       0.22277456       0.09172070       0.82297179 </v>
   <v>       0.02682448       0.91098266       0.80129292 </v>
   <v>       0.98457538       0.09496782       0.60167081 </v>
   <v>       0.77092396       0.91312747       0.57617017 </v>
   <v>       0.75213216       0.07934402       0.82621293 </v>
   <v>       0.51209359       0.91088970       0.82471809 </v>
  </varray>
 </structure>
</modeling>
