<?xml version="1.0" encoding="ISO-8859-1"?>
<modeling>
 <generator>
  <i name="program" type="string">vasp </i>
  <i name="version" type="string">5.3.3  </i>
  <i name="subversion" type="string">18Dez12 (build Nov 19 2020 19:34:37) complex                          parallel </i>
  <i name="platform" type="string">LinuxIFC </i>
  <i name="date" type="string">2021 09 23 </i>
  <i name="time" type="string">10:36:55 </i>
 </generator>
 <incar>
  <i type="string" name="SYSTEM"> La2O2S</i>
  <i type="string" name="PREC">normal</i>
  <i type="int" name="NELMIN">     4</i>
  <i type="int" name="IBRION">     2</i>
  <i type="int" name="NFREE">    10</i>
  <i name="EDIFF">      0.00000100</i>
  <i name="EDIFFG">     -0.01000000</i>
  <i type="int" name="NSW">   200</i>
  <i type="int" name="ISIF">     3</i>
  <i name="ENCUT">    600.00000000</i>
  <i name="ENAUG">    900.00000000</i>
  <i type="int" name="ISMEAR">    -5</i>
  <i type="logical" name="LWAVE"> F  </i>
  <i type="logical" name="LCHARG"> F  </i>
 </incar>
 <kpoints>
  <generation param="Gamma">
   <v type="int" name="divisions">       2        2        2 </v>
   <v name="usershift">      0.00000000       0.00000000       0.00000000 </v>
   <v name="genvec1">      0.50000000       0.00000000       0.00000000 </v>
   <v name="genvec2">      0.00000000       0.50000000       0.00000000 </v>
   <v name="genvec3">      0.00000000       0.00000000       0.50000000 </v>
   <v name="shift">      0.00000000       0.00000000       0.00000000 </v>
  </generation>
  <varray name="kpointlist" >
   <v>       0.00000000       0.00000000       0.00000000 </v>
   <v>       0.50000000       0.00000000       0.00000000 </v>
   <v>       0.00000000       0.50000000       0.00000000 </v>
   <v>       0.50000000       0.50000000       0.00000000 </v>
   <v>       0.00000000       0.00000000       0.50000000 </v>
   <v>       0.50000000       0.00000000       0.50000000 </v>
   <v>       0.00000000       0.50000000       0.50000000 </v>
   <v>       0.50000000       0.50000000       0.50000000 </v>
  </varray>
  <varray name="weights" >
   <v>       0.12500000 </v>
   <v>       0.12500000 </v>
   <v>       0.12500000 </v>
   <v>       0.12500000 </v>
   <v>       0.12500000 </v>
   <v>       0.12500000 </v>
   <v>       0.12500000 </v>
   <v>       0.12500000 </v>
  </varray>
  <varray name="tetrahedronlist"  type="int" >
   <v type="int" >        2        1        2        4        5 </v>
   <v type="int" >        2        1        3        4        5 </v>
   <v type="int" >        2        3        4        5        7 </v>
   <v type="int" >        2        2        4        5        6 </v>
   <v type="int" >        2        4        5        6        8 </v>
   <v type="int" >        2        4        5        7        8 </v>
   <v type="int" >        2        1        2        3        6 </v>
   <v type="int" >        2        2        3        4        6 </v>
   <v type="int" >        2        3        4        6        8 </v>
   <v type="int" >        2        1        3        5        6 </v>
   <v type="int" >        2        3        5        6        7 </v>
   <v type="int" >        2        3        6        7        8 </v>
   <v type="int" >        2        2        3        4        7 </v>
   <v type="int" >        2        1        2        3        7 </v>
   <v type="int" >        2        1        2        5        7 </v>
   <v type="int" >        2        2        4        7        8 </v>
   <v type="int" >        2        2        6        7        8 </v>
   <v type="int" >        2        2        5        6        7 </v>
   <v type="int" >        2        1        3        4        8 </v>
   <v type="int" >        2        1        2        4        8 </v>
   <v type="int" >        2        1        2        6        8 </v>
   <v type="int" >        2        1        3        7        8 </v>
   <v type="int" >        2        1        5        7        8 </v>
   <v type="int" >        2        1        5        6        8 </v>
  </varray>
  <i name="volumeweight">      0.02083333 </i>
 </kpoints>
 <parameters>
  <separator name="general" >
   <i type="string" name="SYSTEM">La2O2S</i>
   <i type="logical" name="LCOMPAT"> F  </i>
  </separator>
  <separator name="electronic" >
   <i type="string" name="PREC">normal</i>
   <i name="ENMAX">    600.00000000</i>
   <i name="ENAUG">    900.00000000</i>
   <i name="EDIFF">      0.00000100</i>
   <i type="int" name="IALGO">    38</i>
   <i type="int" name="IWAVPR">    11</i>
   <i type="int" name="NBANDS">   280</i>
   <i name="NELECT">    468.00000000</i>
   <i type="int" name="TURBO">     0</i>
   <i type="int" name="IRESTART">     0</i>
   <i type="int" name="NREBOOT">     0</i>
   <i type="int" name="NMIN">     0</i>
   <i name="EREF">      0.00000000</i>
   <separator name="electronic smearing" >
    <i type="int" name="ISMEAR">    -5</i>
    <i name="SIGMA">      0.20000000</i>
    <i name="KSPACING">      0.50000000</i>
    <i type="logical" name="KGAMMA"> T  </i>
   </separator>
   <separator name="electronic projectors" >
    <i type="logical" name="LREAL"> F  </i>
    <v name="ROPT">      0.00000000      0.00000000      0.00000000      0.00000000      0.00000000</v>
    <i type="int" name="LMAXPAW">  -100</i>
    <i type="int" name="LMAXMIX">     2</i>
    <i type="logical" name="NLSPLINE"> F  </i>
   </separator>
   <separator name="electronic startup" >
    <i type="int" name="ISTART">     0</i>
    <i type="int" name="ICHARG">     2</i>
    <i type="int" name="INIWAV">     1</i>
   </separator>
   <separator name="electronic spin" >
    <i type="int" name="ISPIN">     1</i>
    <i type="logical" name="LNONCOLLINEAR"> F  </i>
    <v name="MAGMOM">      1.00000000      1.00000000      1.00000000      1.00000000      1.00000000      1.00000000      1.00000000      1.00000000      1.00000000      1.00000000      1.00000000      1.00000000      1.00000000      1.00000000      1.00000000      1.00000000      1.00000000      1.00000000      1.00000000      1.00000000
      1.00000000      1.00000000      1.00000000      1.00000000      1.00000000      1.00000000      1.00000000      1.00000000      1.00000000      1.00000000      1.00000000      1.00000000      1.00000000      1.00000000      1.00000000      1.00000000      1.00000000      1.00000000      1.00000000      1.00000000
      1.00000000      1.00000000      1.00000000      1.00000000      1.00000000      1.00000000      1.00000000      1.00000000      1.00000000      1.00000000      1.00000000      1.00000000      1.00000000      1.00000000      1.00000000      1.00000000      1.00000000      1.00000000      1.00000000      1.00000000
      1.00000000</v>
    <i name="NUPDOWN">     -1.00000000</i>
    <i type="logical" name="LSORBIT"> F  </i>
    <v name="SAXIS">      0.00000000      0.00000000      1.00000000</v>
    <i type="logical" name="LSPIRAL"> F  </i>
    <v name="QSPIRAL">      0.00000000      0.00000000      0.00000000</v>
    <i type="logical" name="LZEROZ"> F  </i>
   </separator>
   <separator name="electronic exchange-correlation" >
    <i type="logical" name="LASPH"> F  </i>
    <i type="logical" name="LMETAGGA"> F  </i>
   </separator>
   <separator name="electronic convergence" >
    <i type="int" name="NELM">    60</i>
    <i type="int" name="NELMDL">    -5</i>
    <i type="int" name="NELMIN">     4</i>
    <i name="ENINI">    600.00000000</i>
    <separator name="electronic convergence detail" >
     <i type="logical" name="LDIAG"> T  </i>
     <i type="logical" name="LSUBROT"> T  </i>
     <i name="WEIMIN">      0.00100000</i>
     <i name="EBREAK">      0.00000000</i>
     <i name="DEPER">      0.30000000</i>
     <i type="int" name="NRMM">     4</i>
     <i name="TIME">      0.40000000</i>
    </separator>
   </separator>
   <separator name="electronic mixer" >
    <i name="AMIX">      0.40000000</i>
    <i name="BMIX">      1.00000000</i>
    <i name="AMIN">      0.10000000</i>
    <i name="AMIX_MAG">      1.60000000</i>
    <i name="BMIX_MAG">      1.00000000</i>
    <separator name="electronic mixer details" >
     <i type="int" name="IMIX">     4</i>
     <i type="int" name="MAXMIX">   -45</i>
     <i name="WC">    100.00000000</i>
     <i type="int" name="INIMIX">     1</i>
     <i type="int" name="MIXPRE">     1</i>
     <i type="int" name="MREMOVE">     5</i>
    </separator>
   </separator>
   <separator name="electronic dipolcorrection" >
    <i type="logical" name="LDIPOL"> F  </i>
    <i type="logical" name="LMONO"> F  </i>
    <i type="int" name="IDIPOL">     0</i>
    <i name="EPSILON">      1.00000000</i>
    <v name="DIPOL">   -100.00000000   -100.00000000   -100.00000000</v>
    <i name="EFIELD">      0.00000000</i>
   </separator>
  </separator>
  <separator name="grids" >
   <i type="int" name="NGX">    70</i>
   <i type="int" name="NGY">    60</i>
   <i type="int" name="NGZ">    70</i>
   <i type="int" name="NGXF">   140</i>
   <i type="int" name="NGYF">   120</i>
   <i type="int" name="NGZF">   140</i>
   <i type="logical" name="ADDGRID"> F  </i>
  </separator>
  <separator name="ionic" >
   <i type="int" name="NSW">   200</i>
   <i type="int" name="IBRION">     2</i>
   <i type="int" name="ISIF">     3</i>
   <i name="PSTRESS">      0.00000000</i>
   <i name="EDIFFG">     -0.01000000</i>
   <i type="int" name="NFREE">    10</i>
   <i name="POTIM">      0.50000000</i>
   <i name="SMASS">     -3.00000000</i>
   <i name="SCALEE">      1.00000000</i>
  </separator>
  <separator name="ionic md" >
   <i name="TEBEG">      0.00010000</i>
   <i name="TEEND">      0.00010000</i>
   <i type="int" name="NBLOCK">     1</i>
   <i type="int" name="KBLOCK">   200</i>
   <i type="int" name="NPACO">   256</i>
   <i name="APACO">     16.00000000</i>
  </separator>
  <separator name="symmetry" >
   <i type="int" name="ISYM">     2</i>
   <i name="SYMPREC">      0.00001000</i>
  </separator>
  <separator name="dos" >
   <i type="logical" name="LORBIT"> F  </i>
   <v name="RWIGS">     -1.00000000     -1.00000000     -1.00000000     -1.00000000     -1.00000000</v>
   <i type="int" name="NEDOS">   301</i>
   <i name="EMIN">     10.00000000</i>
   <i name="EMAX">    -10.00000000</i>
   <i name="EFERMI">      0.00000000</i>
  </separator>
  <separator name="writing" >
   <i type="int" name="NWRITE">     2</i>
   <i type="logical" name="LWAVE"> F  </i>
   <i type="logical" name="LCHARG"> F  </i>
   <i type="logical" name="LPARD"> F  </i>
   <i type="logical" name="LVTOT"> F  </i>
   <i type="logical" name="LVHAR"> F  </i>
   <i type="logical" name="LELF"> F  </i>
   <i type="logical" name="LOPTICS"> F  </i>
   <v name="STM">      0.00000000      0.00000000      0.00000000      0.00000000      0.00000000      0.00000000      0.00000000</v>
  </separator>
  <separator name="performance" >
   <i type="int" name="NPAR">    40</i>
   <i type="int" name="NSIM">     4</i>
   <i type="int" name="NBLK">    -1</i>
   <i type="logical" name="LPLANE"> T  </i>
   <i type="logical" name="LSCALAPACK"> F  </i>
   <i type="logical" name="LSCAAWARE"> F  </i>
   <i type="logical" name="LSCALU"> F  </i>
   <i type="logical" name="LASYNC"> F  </i>
   <i type="logical" name="LORBITALREAL"> F  </i>
  </separator>
  <separator name="miscellaneous" >
   <i type="int" name="IDIOT">     3</i>
   <i type="logical" name="LMUSIC"> F  </i>
   <v name="POMASS">      7.01000000     24.30500000    208.98000000     32.06600000     16.00000000</v>
   <v name="DARWINR">      0.00000000      0.00000000      0.00000000      0.00000000      0.00000000</v>
   <v name="DARWINV">      1.00000000      1.00000000      1.00000000      1.00000000      1.00000000</v>
   <i type="logical" name="LCORR"> T  </i>
  </separator>
  <i type="logical" name="GGA_COMPAT"> T  </i>
  <i type="logical" name="LBERRY"> F  </i>
  <i type="int" name="ICORELEVEL">     0</i>
  <i type="logical" name="LDAU"> F  </i>
  <i type="int" name="I_CONSTRAINED_M">     0</i>
  <separator name="electronic exchange-correlation" >
   <i type="string" name="GGA">--</i>
   <i type="int" name="VOSKOWN">     0</i>
   <i type="logical" name="LHFCALC"> F  </i>
   <i type="string" name="PRECFOCK"></i>
   <i type="logical" name="LSYMGRAD"> F  </i>
   <i type="logical" name="LHFONE"> F  </i>
   <i type="logical" name="LRHFCALC"> F  </i>
   <i type="logical" name="LTHOMAS"> F  </i>
   <i type="logical" name="LMODELHF"> F  </i>
   <i name="ENCUT4O">     -1.00000000</i>
   <i type="int" name="EXXOEP">     0</i>
   <i type="int" name="FOURORBIT">     0</i>
   <i name="AEXX">      0.00000000</i>
   <i name="HFALPHA">      0.00000000</i>
   <i name="MCALPHA">      0.00000000</i>
   <i name="ALDAX">      1.00000000</i>
   <i name="AGGAX">      1.00000000</i>
   <i name="ALDAC">      1.00000000</i>
   <i name="AGGAC">      1.00000000</i>
   <i type="int" name="NKREDX">     1</i>
   <i type="int" name="NKREDY">     1</i>
   <i type="int" name="NKREDZ">     1</i>
   <i type="logical" name="SHIFTRED"> F  </i>
   <i type="logical" name="ODDONLY"> F  </i>
   <i type="logical" name="EVENONLY"> F  </i>
   <i type="int" name="LMAXFOCK">     0</i>
   <i type="int" name="NMAXFOCKAE">     0</i>
   <i type="logical" name="LFOCKAEDFT"> F  </i>
   <i name="HFSCREEN">      0.00000000</i>
   <i name="HFSCREENC">      0.00000000</i>
   <i type="int" name="NBANDSGWLOW">     0</i>
  </separator>
  <separator name="vdW DFT" >
   <i type="logical" name="LUSE_VDW"> F  </i>
   <i name="Zab_VDW">     -0.84910000</i>
   <i name="PARAM1">      0.12340000</i>
   <i name="PARAM2">      1.00000000</i>
   <i name="PARAM3">      0.00000000</i>
  </separator>
  <separator name="model GW" >
   <i type="int" name="MODEL_GW">     0</i>
   <i name="MODEL_EPS0">     11.77228070</i>
   <i name="MODEL_ALPHA">      1.00000000</i>
  </separator>
  <separator name="linear response parameters" >
   <i type="logical" name="LEPSILON"> F  </i>
   <i type="logical" name="LRPA"> F  </i>
   <i type="logical" name="LNABLA"> F  </i>
   <i type="logical" name="LVEL"> F  </i>
   <i type="int" name="KINTER">     0</i>
   <i name="CSHIFT">      0.10000000</i>
   <i name="OMEGAMAX">     -1.00000000</i>
   <i name="DEG_THRESHOLD">      0.00200000</i>
  </separator>
  <separator name="orbital magnetization" >
   <i type="logical" name="NUCIND"> F  </i>
   <v name="MAGPOS">      0.00000000      0.00000000      0.00000000</v>
   <i type="logical" name="LNICSALL"> T  </i>
   <i type="logical" name="ORBITALMAG"> F  </i>
   <i type="logical" name="LMAGBLOCH"> F  </i>
   <i type="logical" name="LCHIMAG"> F  </i>
   <i type="logical" name="LGAUGE"> T  </i>
   <i type="int" name="MAGATOM">     0</i>
   <v name="MAGDIPOL">      0.00000000      0.00000000      0.00000000</v>
   <v name="AVECCONST">      0.00000000      0.00000000      0.00000000</v>
  </separator>
  <separator name="response functions" >
   <i type="logical" name="LADDER"> F  </i>
   <i type="logical" name="LFXC"> F  </i>
   <i type="logical" name="LHARTREE"> T  </i>
   <i type="int" name="IBSE">     0</i>
   <i type="logical" name="LTCTE"> F  </i>
   <i type="logical" name="LTETE"> F  </i>
   <i type="logical" name="LTRIPLET"> F  </i>
   <i type="logical" name="LFXCEPS"> F  </i>
   <i type="logical" name="L2ORDER"> F  </i>
   <i type="logical" name="LUSEW"> F  </i>
   <i name="ENCUTGW">     -2.00000000</i>
   <i name="ENCUTGWSOFT">     -2.00000000</i>
   <i name="ENCUTLF">     -1.00000000</i>
   <i type="int" name="LMAXMP2">    -1</i>
   <i name="SCISSOR">      0.00000000</i>
   <i type="int" name="NOMEGA">     0</i>
   <i type="int" name="NOMEGAR">     0</i>
   <i type="int" name="NBANDSGW">    -1</i>
   <i type="int" name="NBANDSO">    -1</i>
   <i type="int" name="NBANDSV">    -1</i>
   <i type="int" name="NELM">     1</i>
   <i type="int" name="DIM">     3</i>
   <i type="int" name="ANTIRES">     0</i>
   <i name="OMEGAMAX">    -30.00000000</i>
   <i name="OMEGATL">   -200.00000000</i>
   <i type="int" name="OMEGAGRID">     0</i>
   <i name="CSHIFT">     -0.10000000</i>
   <i type="logical" name="SELFENERGY"> F  </i>
   <i type="logical" name="LSPECTRAL"> F  </i>
   <i type="logical" name="ODDONLYGW"> F  </i>
   <i type="logical" name="EVENONLYGW"> F  </i>
   <i type="int" name="NKREDLFX">     1</i>
   <i type="int" name="NKREDLFY">     1</i>
   <i type="int" name="NKREDLFZ">     1</i>
   <i type="int" name="MAXMEM">  1800</i>
   <i type="int" name="TELESCOPE">     0</i>
  </separator>
 </parameters>
 <atominfo>
  <atoms>      61 </atoms>
  <types>       5 </types>
  <array name="atoms" >
   <dimension dim="1">ion</dimension>
   <field type="string">element</field>
   <field type="int">atomtype</field>
   <set>
    <rc><c>Li</c><c>   1</c></rc>
    <rc><c>Li</c><c>   1</c></rc>
    <rc><c>Li</c><c>   1</c></rc>
    <rc><c>Li</c><c>   1</c></rc>
    <rc><c>Li</c><c>   1</c></rc>
    <rc><c>Li</c><c>   1</c></rc>
    <rc><c>Li</c><c>   1</c></rc>
    <rc><c>Li</c><c>   1</c></rc>
    <rc><c>Li</c><c>   1</c></rc>
    <rc><c>Li</c><c>   1</c></rc>
    <rc><c>Mg</c><c>   2</c></rc>
    <rc><c>Mg</c><c>   2</c></rc>
    <rc><c>Mg</c><c>   2</c></rc>
    <rc><c>Bi</c><c>   3</c></rc>
    <rc><c>Bi</c><c>   3</c></rc>
    <rc><c>Bi</c><c>   3</c></rc>
    <rc><c>Bi</c><c>   3</c></rc>
    <rc><c>Bi</c><c>   3</c></rc>
    <rc><c>Bi</c><c>   3</c></rc>
    <rc><c>Bi</c><c>   3</c></rc>
    <rc><c>Bi</c><c>   3</c></rc>
    <rc><c>Bi</c><c>   3</c></rc>
    <rc><c>Bi</c><c>   3</c></rc>
    <rc><c>Bi</c><c>   3</c></rc>
    <rc><c>Bi</c><c>   3</c></rc>
    <rc><c>Bi</c><c>   3</c></rc>
    <rc><c>Bi</c><c>   3</c></rc>
    <rc><c>Bi</c><c>   3</c></rc>
    <rc><c>Bi</c><c>   3</c></rc>
    <rc><c>S </c><c>   4</c></rc>
    <rc><c>S </c><c>   4</c></rc>
    <rc><c>S </c><c>   4</c></rc>
    <rc><c>S </c><c>   4</c></rc>
    <rc><c>S </c><c>   4</c></rc>
    <rc><c>S </c><c>   4</c></rc>
    <rc><c>S </c><c>   4</c></rc>
    <rc><c>S </c><c>   4</c></rc>
    <rc><c>S </c><c>   4</c></rc>
    <rc><c>S </c><c>   4</c></rc>
    <rc><c>S </c><c>   4</c></rc>
    <rc><c>S </c><c>   4</c></rc>
    <rc><c>S </c><c>   4</c></rc>
    <rc><c>S </c><c>   4</c></rc>
    <rc><c>S </c><c>   4</c></rc>
    <rc><c>S </c><c>   4</c></rc>
    <rc><c>O </c><c>   5</c></rc>
    <rc><c>O </c><c>   5</c></rc>
    <rc><c>O </c><c>   5</c></rc>
    <rc><c>O </c><c>   5</c></rc>
    <rc><c>O </c><c>   5</c></rc>
    <rc><c>O </c><c>   5</c></rc>
    <rc><c>O </c><c>   5</c></rc>
    <rc><c>O </c><c>   5</c></rc>
    <rc><c>O </c><c>   5</c></rc>
    <rc><c>O </c><c>   5</c></rc>
    <rc><c>O </c><c>   5</c></rc>
    <rc><c>O </c><c>   5</c></rc>
    <rc><c>O </c><c>   5</c></rc>
    <rc><c>O </c><c>   5</c></rc>
    <rc><c>O </c><c>   5</c></rc>
    <rc><c>O </c><c>   5</c></rc>
   </set>
  </array>
  <array name="atomtypes" >
   <dimension dim="1">type</dimension>
   <field type="int">atomspertype</field>
   <field type="string">element</field>
   <field>mass</field>
   <field>valence</field>
   <field type="string">pseudopotential</field>
   <set>
    <rc><c>  10</c><c>Li</c><c>      7.01000000</c><c>      3.00000000</c><c>  PAW_PBE Li_sv 10Sep2004               </c></rc>
    <rc><c>   3</c><c>Mg</c><c>     24.30500000</c><c>      2.00000000</c><c>  PAW_PBE Mg 13Apr2007                  </c></rc>
    <rc><c>  16</c><c>Bi</c><c>    208.98000000</c><c>     15.00000000</c><c>  PAW_PBE Bi_d 06Sep2000                </c></rc>
    <rc><c>  16</c><c>S </c><c>     32.06600000</c><c>      6.00000000</c><c>  PAW_PBE S 06Sep2000                   </c></rc>
    <rc><c>  16</c><c>O </c><c>     16.00000000</c><c>      6.00000000</c><c>  PAW_PBE O 08Apr2002                   </c></rc>
   </set>
  </array>
 </atominfo>
 <structure name="initialpos" >
  <crystal>
   <varray name="basis" >
    <v>      11.17850000       0.00000000       0.00000000 </v>
    <v>       0.00000000       9.57460000       0.00000000 </v>
    <v>       0.00000000       0.00000000      11.18240000 </v>
   </varray>
   <i name="volume">   1196.84853820 </i>
   <varray name="rec_basis" >
    <v>       0.08945744       0.00000000       0.00000000 </v>
    <v>       0.00000000       0.10444301       0.00000000 </v>
    <v>       0.00000000       0.00000000       0.08942624 </v>
   </varray>
  </crystal>
  <varray name="positions" >
   <v>       0.37539000       0.00017000       0.43687000 </v>
   <v>       0.12461000       0.99984000       0.18687000 </v>
   <v>       0.37461000       0.00017000       0.18687000 </v>
   <v>       0.62539000       0.99984000       0.43687000 </v>
   <v>       0.87539000       0.00017000       0.43687000 </v>
   <v>       0.62461000       0.99984000       0.18687000 </v>
   <v>       0.37539000       0.00017000       0.93687000 </v>
   <v>       0.12461000       0.99984000       0.68687000 </v>
   <v>       0.37461000       0.00017000       0.68687000 </v>
   <v>       0.62539000       0.99984000       0.93687000 </v>
   <v>       0.87461000       0.00017000       0.18687000 </v>
   <v>       0.87539000       0.00017000       0.93687000 </v>
   <v>       0.62461000       0.99984000       0.68687000 </v>
   <v>       0.00013000       0.29519000       0.06281000 </v>
   <v>       0.25013000       0.70481000       0.06281000 </v>
   <v>       0.24987000       0.29519000       0.31282000 </v>
   <v>       0.49987000       0.70481000       0.31282000 </v>
   <v>       0.50013000       0.29519000       0.06281000 </v>
   <v>       0.75013000       0.70481000       0.06281000 </v>
   <v>       0.74987000       0.29519000       0.31282000 </v>
   <v>       0.99987000       0.70481000       0.31282000 </v>
   <v>       0.00013000       0.29519000       0.56281000 </v>
   <v>       0.25013000       0.70481000       0.56281000 </v>
   <v>       0.24987000       0.29519000       0.81282000 </v>
   <v>       0.49987000       0.70481000       0.81282000 </v>
   <v>       0.50013000       0.29519000       0.56281000 </v>
   <v>       0.75013000       0.70481000       0.56281000 </v>
   <v>       0.74987000       0.29519000       0.81282000 </v>
   <v>       0.99987000       0.70481000       0.81282000 </v>
   <v>       0.25005000       0.32677000       0.06286000 </v>
   <v>       0.00005000       0.67323000       0.06286000 </v>
   <v>       0.49995000       0.32677000       0.31286000 </v>
   <v>       0.24995000       0.67323000       0.31286000 </v>
   <v>       0.75005000       0.32677000       0.06286000 </v>
   <v>       0.50005000       0.67323000       0.06286000 </v>
   <v>       0.99995000       0.32677000       0.31286000 </v>
   <v>       0.74995000       0.67323000       0.31286000 </v>
   <v>       0.25005000       0.32677000       0.56286000 </v>
   <v>       0.00005000       0.67323000       0.56286000 </v>
   <v>       0.49995000       0.32677000       0.81286000 </v>
   <v>       0.24995000       0.67323000       0.81286000 </v>
   <v>       0.75005000       0.32677000       0.56286000 </v>
   <v>       0.50005000       0.67323000       0.56286000 </v>
   <v>       0.99995000       0.32677000       0.81286000 </v>
   <v>       0.74995000       0.67323000       0.81286000 </v>
   <v>       0.49987000       0.07798000       0.06246000 </v>
   <v>       0.24987000       0.92202000       0.06246000 </v>
   <v>       0.25013000       0.07798000       0.31246000 </v>
   <v>       0.00013000       0.92202000       0.31246000 </v>
   <v>       0.99987000       0.07798000       0.06246000 </v>
   <v>       0.74987000       0.92202000       0.06246000 </v>
   <v>       0.75013000       0.07798000       0.31246000 </v>
   <v>       0.50013000       0.92202000       0.31246000 </v>
   <v>       0.49987000       0.07798000       0.56246000 </v>
   <v>       0.24987000       0.92202000       0.56246000 </v>
   <v>       0.25013000       0.07798000       0.81246000 </v>
   <v>       0.00013000       0.92202000       0.81246000 </v>
   <v>       0.99987000       0.07798000       0.56246000 </v>
   <v>       0.74987000       0.92202000       0.56246000 </v>
   <v>       0.75013000       0.07798000       0.81246000 </v>
   <v>       0.50013000       0.92202000       0.81246000 </v>
  </varray>
 </structure>
 <calculation>
  <scstep>
   <time name="dav">   39.68   40.06</time>
   <time name="total">   39.75   40.17</time>
   <energy>
    <i name="alphaZ">   1073.51873187 </i>
    <i name="ewald"> -30877.56251500 </i>
    <i name="hartreedc"> -12711.63369284 </i>
    <i name="XCdc">   1395.00950883 </i>
    <i name="pawpsdc">  36823.70205594 </i>
    <i name="pawaedc"> -36326.52930246 </i>
    <i name="eentropy">      0.00000000 </i>
    <i name="bandstr">   1609.31593713 </i>
    <i name="atom">  44791.06186932 </i>
    <i name="e_fr_energy">   5776.88259280 </i>
    <i name="e_wo_entrp">   5776.88259280 </i>
    <i name="e_0_energy">   5776.88259280 </i>
   </energy>
  </scstep>
  <scstep>
   <time name="dav">   39.82   40.05</time>
   <time name="total">   39.83   40.11</time>
   <energy>
    <i name="e_fr_energy">    718.97564501 </i>
    <i name="e_wo_entrp">    718.97564501 </i>
    <i name="e_0_energy">    718.97564501 </i>
   </energy>
  </scstep>
  <scstep>
   <time name="dav">   47.08   47.42</time>
   <time name="total">   47.09   47.44</time>
   <energy>
    <i name="e_fr_energy">   -259.95058117 </i>
    <i name="e_wo_entrp">   -259.95058117 </i>
    <i name="e_0_energy">   -259.95058117 </i>
   </energy>
  </scstep>
  <scstep>
   <time name="dav">   50.99   51.31</time>
   <time name="total">   50.99   51.33</time>
   <energy>
    <i name="e_fr_energy">   -347.36276238 </i>
    <i name="e_wo_entrp">   -347.36276238 </i>
    <i name="e_0_energy">   -347.36276238 </i>
   </energy>
  </scstep>
  <scstep>
   <time name="dav">   63.51   63.93</time>
   <time name="total">   63.99   64.43</time>
   <energy>
    <i name="e_fr_energy">   -354.55186313 </i>
    <i name="e_wo_entrp">   -354.55186313 </i>
    <i name="e_0_energy">   -354.55186313 </i>
   </energy>
  </scstep>
  <scstep>
   <time name="dav">   60.18   60.34</time>
   <time name="total">   60.77   60.96</time>
   <energy>
    <i name="e_fr_energy">   -295.96922718 </i>
    <i name="e_wo_entrp">   -295.96922718 </i>
    <i name="e_0_energy">   -295.96922718 </i>
   </energy>
  </scstep>
  <scstep>
   <time name="dav">   45.02   45.37</time>
   <time name="total">   45.54   45.92</time>
   <energy>
    <i name="e_fr_energy">   -297.87180784 </i>
    <i name="e_wo_entrp">   -297.87180784 </i>
    <i name="e_0_energy">   -297.87180784 </i>
   </energy>
  </scstep>
  <scstep>
   <time name="dav">   50.33   51.26</time>
   <time name="total">   50.84   51.83</time>
   <energy>
    <i name="e_fr_energy">   -296.52377382 </i>
    <i name="e_wo_entrp">   -296.52377382 </i>
    <i name="e_0_energy">   -296.52377382 </i>
   </energy>
  </scstep>
  <scstep>
   <time name="dav">   47.09   47.91</time>
   <time name="total">   47.60   48.45</time>
   <energy>
    <i name="e_fr_energy">   -295.89105392 </i>
    <i name="e_wo_entrp">   -295.89105392 </i>
    <i name="e_0_energy">   -295.89105392 </i>
   </energy>
  </scstep>
  <scstep>
   <time name="dav">   53.86   54.41</time>
   <time name="total">   54.38   54.98</time>
   <energy>
    <i name="e_fr_energy">   -295.95342290 </i>
    <i name="e_wo_entrp">   -295.95342290 </i>
    <i name="e_0_energy">   -295.95342290 </i>
   </energy>
  </scstep>
  <scstep>
   <time name="dav">   55.28   55.90</time>
   <time name="total">   55.87   56.55</time>
   <energy>
    <i name="e_fr_energy">   -295.95316935 </i>
    <i name="e_wo_entrp">   -295.95316935 </i>
    <i name="e_0_energy">   -295.95316935 </i>
   </energy>
  </scstep>
  <scstep>
   <time name="dav">   48.19   49.01</time>
   <time name="total">   48.69   49.53</time>
   <energy>
    <i name="e_fr_energy">   -295.95815478 </i>
    <i name="e_wo_entrp">   -295.95815478 </i>
    <i name="e_0_energy">   -295.95815478 </i>
   </energy>
  </scstep>
  <scstep>
   <time name="dav">   53.02   53.65</time>
   <time name="total">   53.52   54.18</time>
   <energy>
    <i name="e_fr_energy">   -295.95831806 </i>
    <i name="e_wo_entrp">   -295.95831806 </i>
    <i name="e_0_energy">   -295.95831806 </i>
   </energy>
  </scstep>
  <scstep>
   <time name="dav">   50.30   50.77</time>
   <time name="total">   50.82   51.32</time>
   <energy>
    <i name="e_fr_energy">   -295.95836946 </i>
    <i name="e_wo_entrp">   -295.95836946 </i>
    <i name="e_0_energy">   -295.95836946 </i>
   </energy>
  </scstep>
  <scstep>
   <time name="dav">   52.60   53.02</time>
   <time name="total">   53.10   53.53</time>
   <energy>
    <i name="e_fr_energy">   -295.95846793 </i>
    <i name="e_wo_entrp">   -295.95846793 </i>
    <i name="e_0_energy">   -295.95846793 </i>
   </energy>
  </scstep>
  <scstep>
   <time name="dav">   55.06   55.50</time>
   <time name="total">   55.57   56.03</time>
   <energy>
    <i name="e_fr_energy">   -295.95848585 </i>
    <i name="e_wo_entrp">   -295.95848585 </i>
    <i name="e_0_energy">   -295.95848585 </i>
   </energy>
  </scstep>
  <scstep>
   <time name="dav">   48.65   49.07</time>
   <time name="total">   49.16   49.61</time>
   <energy>
    <i name="e_fr_energy">   -295.95849197 </i>
    <i name="e_wo_entrp">   -295.95849197 </i>
    <i name="e_0_energy">   -295.95849197 </i>
   </energy>
  </scstep>
  <scstep>
   <time name="dav">   47.65   48.25</time>
   <time name="total">   48.17   48.83</time>
   <energy>
    <i name="e_fr_energy">   -295.95849409 </i>
    <i name="e_wo_entrp">   -295.95849409 </i>
    <i name="e_0_energy">   -295.95849409 </i>
   </energy>
  </scstep>
  <scstep>
   <time name="dav">   45.36   45.52</time>
   <time name="total">   45.42   45.60</time>
   <energy>
    <i name="alphaZ">   1073.51873187 </i>
    <i name="ewald"> -30877.56251500 </i>
    <i name="hartreedc"> -12944.25460929 </i>
    <i name="XCdc">   1418.34229568 </i>
    <i name="pawpsdc">  43852.35632659 </i>
    <i name="pawaedc"> -43330.32781544 </i>
    <i name="eentropy">      0.00000000 </i>
    <i name="bandstr">  -4279.09277869 </i>
    <i name="atom">  44791.06186932 </i>
    <i name="e_fr_energy">   -295.95849498 </i>
    <i name="e_wo_entrp">   -295.95849498 </i>
    <i name="e_0_energy">   -295.95849498 </i>
   </energy>
  </scstep>
  <structure>
   <crystal>
    <varray name="basis" >
     <v>      11.17850000       0.00000000       0.00000000 </v>
     <v>       0.00000000       9.57460000       0.00000000 </v>
     <v>       0.00000000       0.00000000      11.18240000 </v>
    </varray>
    <i name="volume">   1196.84853820 </i>
    <varray name="rec_basis" >
     <v>       0.08945744       0.00000000       0.00000000 </v>
     <v>       0.00000000       0.10444301       0.00000000 </v>
     <v>       0.00000000       0.00000000       0.08942624 </v>
    </varray>
   </crystal>
   <varray name="positions" >
    <v>       0.37539000       0.00017000       0.43687000 </v>
    <v>       0.12461000       0.99984000       0.18687000 </v>
    <v>       0.37461000       0.00017000       0.18687000 </v>
    <v>       0.62539000       0.99984000       0.43687000 </v>
    <v>       0.87539000       0.00017000       0.43687000 </v>
    <v>       0.62461000       0.99984000       0.18687000 </v>
    <v>       0.37539000       0.00017000       0.93687000 </v>
    <v>       0.12461000       0.99984000       0.68687000 </v>
    <v>       0.37461000       0.00017000       0.68687000 </v>
    <v>       0.62539000       0.99984000       0.93687000 </v>
    <v>       0.87461000       0.00017000       0.18687000 </v>
    <v>       0.87539000       0.00017000       0.93687000 </v>
    <v>       0.62461000       0.99984000       0.68687000 </v>
    <v>       0.00013000       0.29519000       0.06281000 </v>
    <v>       0.25013000       0.70481000       0.06281000 </v>
    <v>       0.24987000       0.29519000       0.31282000 </v>
    <v>       0.49987000       0.70481000       0.31282000 </v>
    <v>       0.50013000       0.29519000       0.06281000 </v>
    <v>       0.75013000       0.70481000       0.06281000 </v>
    <v>       0.74987000       0.29519000       0.31282000 </v>
    <v>       0.99987000       0.70481000       0.31282000 </v>
    <v>       0.00013000       0.29519000       0.56281000 </v>
    <v>       0.25013000       0.70481000       0.56281000 </v>
    <v>       0.24987000       0.29519000       0.81282000 </v>
    <v>       0.49987000       0.70481000       0.81282000 </v>
    <v>       0.50013000       0.29519000       0.56281000 </v>
    <v>       0.75013000       0.70481000       0.56281000 </v>
    <v>       0.74987000       0.29519000       0.81282000 </v>
    <v>       0.99987000       0.70481000       0.81282000 </v>
    <v>       0.25005000       0.32677000       0.06286000 </v>
    <v>       0.00005000       0.67323000       0.06286000 </v>
    <v>       0.49995000       0.32677000       0.31286000 </v>
    <v>       0.24995000       0.67323000       0.31286000 </v>
    <v>       0.75005000       0.32677000       0.06286000 </v>
    <v>       0.50005000       0.67323000       0.06286000 </v>
    <v>       0.99995000       0.32677000       0.31286000 </v>
    <v>       0.74995000       0.67323000       0.31286000 </v>
    <v>       0.25005000       0.32677000       0.56286000 </v>
    <v>       0.00005000       0.67323000       0.56286000 </v>
    <v>       0.49995000       0.32677000       0.81286000 </v>
    <v>       0.24995000       0.67323000       0.81286000 </v>
    <v>       0.75005000       0.32677000       0.56286000 </v>
    <v>       0.50005000       0.67323000       0.56286000 </v>
    <v>       0.99995000       0.32677000       0.81286000 </v>
    <v>       0.74995000       0.67323000       0.81286000 </v>
    <v>       0.49987000       0.07798000       0.06246000 </v>
    <v>       0.24987000       0.92202000       0.06246000 </v>
    <v>       0.25013000       0.07798000       0.31246000 </v>
    <v>       0.00013000       0.92202000       0.31246000 </v>
    <v>       0.99987000       0.07798000       0.06246000 </v>
    <v>       0.74987000       0.92202000       0.06246000 </v>
    <v>       0.75013000       0.07798000       0.31246000 </v>
    <v>       0.50013000       0.92202000       0.31246000 </v>
    <v>       0.49987000       0.07798000       0.56246000 </v>
    <v>       0.24987000       0.92202000       0.56246000 </v>
    <v>       0.25013000       0.07798000       0.81246000 </v>
    <v>       0.00013000       0.92202000       0.81246000 </v>
    <v>       0.99987000       0.07798000       0.56246000 </v>
    <v>       0.74987000       0.92202000       0.56246000 </v>
    <v>       0.75013000       0.07798000       0.81246000 </v>
    <v>       0.50013000       0.92202000       0.81246000 </v>
   </varray>
  </structure>
  <varray name="forces" >
   <v>      -0.68694311      -0.06568794      -0.05046373 </v>
   <v>       0.63414268      -0.06781907       0.12411658 </v>
   <v>      -0.42712430      -0.00070526       0.04471417 </v>
   <v>       0.02921780      -0.12955021      -0.19072997 </v>
   <v>       0.65142783       0.05380764       0.92201843 </v>
   <v>      -0.62551145       0.06748619       0.13127717 </v>
   <v>      -0.69198659       0.06899382       0.06184544 </v>
   <v>      -0.33428699       0.06342120      -0.09564395 </v>
   <v>      -0.90970902       0.00429773      -0.03261781 </v>
   <v>      -0.45901873       0.13168183       0.20315963 </v>
   <v>       0.65840948      -0.00051723       1.09664251 </v>
   <v>       1.35413027      -0.11330232      -1.84258206 </v>
   <v>       0.76300684      -0.10962151      -0.23209435 </v>
   <v>       0.74104266       1.12027304      -0.17808684 </v>
   <v>      -0.14344050       0.99269334      -0.11576866 </v>
   <v>      -0.19674238      -1.02784260       0.25581592 </v>
   <v>      -0.40948241      -0.04551410       0.06056214 </v>
   <v>      -0.48226624       0.08521607       0.07094556 </v>
   <v>      -0.11382123      -2.08573473       0.02216683 </v>
   <v>       0.05609383       1.10441200       0.32540080 </v>
   <v>       0.58292248      -0.06900014       0.49987414 </v>
   <v>       0.30488092      -1.93869501       0.02870522 </v>
   <v>      -0.36130995       1.01674899      -0.12112321 </v>
   <v>      -0.28899870      -1.00875012      -0.03875788 </v>
   <v>      -0.52969646      -1.07739891      -0.00736823 </v>
   <v>      -0.48637073       1.07991490      -0.14325661 </v>
   <v>       0.49010001      -0.07633153       0.03348531 </v>
   <v>       0.38198293       1.04932476      -0.39590641 </v>
   <v>       0.45123197       0.99096997      -0.36352334 </v>
   <v>       0.02712485       0.21334293       0.00510599 </v>
   <v>      -0.52143626      -0.05749519       0.10959596 </v>
   <v>       0.32582112       0.15068303      -0.00204262 </v>
   <v>       0.09994500      -0.23549198      -0.07496125 </v>
   <v>       0.09041473      -0.04184039       0.00952188 </v>
   <v>       0.39172896      -0.11941273      -0.07721931 </v>
   <v>      -0.41404353       0.12531510      -0.42603806 </v>
   <v>      -0.01911809      -0.06723174      -0.26893616 </v>
   <v>       0.41341094       0.25439886       0.00624738 </v>
   <v>      -0.26242789      -0.20381145      -0.11928169 </v>
   <v>       0.35528395       0.09462098      -0.04502907 </v>
   <v>       0.30032467      -0.23125733       0.06106307 </v>
   <v>      -0.39884473       0.07225032       0.02320981 </v>
   <v>       0.27236331      -0.13607331       0.12920945 </v>
   <v>      -0.40087979       0.11994589       0.42997208 </v>
   <v>      -0.24655990      -0.00121284       0.23672625 </v>
   <v>       0.41378219      -0.16449965      -0.07740363 </v>
   <v>       0.63377149      -0.83613605       0.58169023 </v>
   <v>       0.66816578       0.87302267      -0.64652352 </v>
   <v>      -1.37390171       0.14454150      -1.32694137 </v>
   <v>      -1.91917512      -0.92977251       0.60539355 </v>
   <v>       0.88436576       1.71144151      -0.02259837 </v>
   <v>       0.37502491      -0.93772432      -0.74301538 </v>
   <v>       0.31971243       0.09301653      -0.01133572 </v>
   <v>       0.71305627      -0.83314698       0.57125454 </v>
   <v>       0.87979941      -0.88856344       0.57431073 </v>
   <v>       0.83588508       0.85813171      -0.50653127 </v>
   <v>      -0.81800638      -0.89998875       0.78729668 </v>
   <v>      -0.20259582       1.70090461      -0.09089005 </v>
   <v>      -1.34391572       0.10632491      -0.10831458 </v>
   <v>      -0.82716486      -0.83552541       0.83403654 </v>
   <v>       0.79620803       0.88847270      -0.49037891 </v>
  </varray>
  <varray name="stress" >
   <v>      -7.40457897       0.30654704       0.48428140 </v>
   <v>       0.30654663     -13.30601054      -0.41037353 </v>
   <v>       0.48428114      -0.41037351      -4.71787751 </v>
  </varray>
  <energy>
   <i name="e_fr_energy">   -310.69511516 </i>
   <i name="e_wo_entrp">   -310.69511516 </i>
   <i name="e_0_energy">      0.00000000 </i>
  </energy>
  <time name="totalsc"> 1045.73 1055.89</time>
 </calculation>
 <calculation>
  <scstep>
   <time name="dav">   42.26   42.39</time>
   <time name="total">   42.78   42.92</time>
   <energy>
    <i name="alphaZ">   1089.81644775 </i>
    <i name="ewald"> -31023.91695331 </i>
    <i name="hartreedc"> -13008.58357178 </i>
    <i name="XCdc">   1427.22806658 </i>
    <i name="pawpsdc">  43852.09557391 </i>
    <i name="pawaedc"> -43330.06989789 </i>
    <i name="eentropy">      0.00000000 </i>
    <i name="bandstr">  -4092.75027714 </i>
    <i name="atom">  44791.06186932 </i>
    <i name="e_fr_energy">   -295.11874257 </i>
    <i name="e_wo_entrp">   -295.11874257 </i>
    <i name="e_0_energy">   -295.11874257 </i>
   </energy>
  </scstep>
  <scstep>
   <time name="dav">   47.70   47.98</time>
   <time name="total">   48.22   48.52</time>
   <energy>
    <i name="e_fr_energy">   -297.68059189 </i>
    <i name="e_wo_entrp">   -297.68059189 </i>
    <i name="e_0_energy">   -297.68059189 </i>
   </energy>
  </scstep>
  <scstep>
   <time name="dav">   60.46   60.75</time>
   <time name="total">   60.97   61.29</time>
   <energy>
    <i name="e_fr_energy">   -297.44888713 </i>
    <i name="e_wo_entrp">   -297.44888713 </i>
    <i name="e_0_energy">   -297.44888713 </i>
   </energy>
  </scstep>
  <scstep>
   <time name="dav">   54.11   54.45</time>
   <time name="total">   54.63   55.01</time>
   <energy>
    <i name="e_fr_energy">   -297.31063773 </i>
    <i name="e_wo_entrp">   -297.31063773 </i>
    <i name="e_0_energy">   -297.31063773 </i>
   </energy>
  </scstep>
  <scstep>
   <time name="dav">   49.31   49.63</time>
   <time name="total">   49.82   50.22</time>
   <energy>
    <i name="e_fr_energy">   -297.30978070 </i>
    <i name="e_wo_entrp">   -297.30978070 </i>
    <i name="e_0_energy">   -297.30978070 </i>
   </energy>
  </scstep>
  <scstep>
   <time name="dav">   52.35   52.53</time>
   <time name="total">   52.87   53.09</time>
   <energy>
    <i name="e_fr_energy">   -297.30803093 </i>
    <i name="e_wo_entrp">   -297.30803093 </i>
    <i name="e_0_energy">   -297.30803093 </i>
   </energy>
  </scstep>
  <scstep>
   <time name="dav">   56.17   56.47</time>
   <time name="total">   56.68   57.01</time>
   <energy>
    <i name="e_fr_energy">   -297.30697257 </i>
    <i name="e_wo_entrp">   -297.30697257 </i>
    <i name="e_0_energy">   -297.30697257 </i>
   </energy>
  </scstep>
  <scstep>
   <time name="dav">   58.78   59.29</time>
   <time name="total">   59.29   59.82</time>
   <energy>
    <i name="e_fr_energy">   -297.30692356 </i>
    <i name="e_wo_entrp">   -297.30692356 </i>
    <i name="e_0_energy">   -297.30692356 </i>
   </energy>
  </scstep>
  <scstep>
   <time name="dav">   45.71   45.97</time>
   <time name="total">   46.22   46.50</time>
   <energy>
    <i name="e_fr_energy">   -297.30696617 </i>
    <i name="e_wo_entrp">   -297.30696617 </i>
    <i name="e_0_energy">   -297.30696617 </i>
   </energy>
  </scstep>
  <scstep>
   <time name="dav">   58.59   59.54</time>
   <time name="total">   59.11   60.10</time>
   <energy>
    <i name="e_fr_energy">   -297.30697118 </i>
    <i name="e_wo_entrp">   -297.30697118 </i>
    <i name="e_0_energy">   -297.30697118 </i>
   </energy>
  </scstep>
  <scstep>
   <time name="dav">   46.95   47.33</time>
   <time name="total">   47.46   47.87</time>
   <energy>
    <i name="e_fr_energy">   -297.30697119 </i>
    <i name="e_wo_entrp">   -297.30697119 </i>
    <i name="e_0_energy">   -297.30697119 </i>
   </energy>
  </scstep>
  <scstep>
   <time name="dav">   44.97   45.05</time>
   <time name="total">   45.03   45.13</time>
   <energy>
    <i name="alphaZ">   1089.81644775 </i>
    <i name="ewald"> -31023.91695331 </i>
    <i name="hartreedc"> -12873.60965743 </i>
    <i name="XCdc">   1421.15690339 </i>
    <i name="pawpsdc">  44213.60076179 </i>
    <i name="pawaedc"> -43694.61406986 </i>
    <i name="eentropy">      0.00000000 </i>
    <i name="bandstr">  -4220.80227235 </i>
    <i name="atom">  44791.06186932 </i>
    <i name="e_fr_energy">   -297.30697071 </i>
    <i name="e_wo_entrp">   -297.30697071 </i>
    <i name="e_0_energy">   -297.30697071 </i>
   </energy>
  </scstep>
  <structure>
   <crystal>
    <varray name="basis" >
     <v>      11.12959944       0.00202447       0.00319824 </v>
     <v>       0.00173399       9.49933406      -0.00232129 </v>
     <v>       0.00319936      -0.00271109      11.15123180 </v>
    </varray>
    <i name="volume">   1178.95020544 </i>
    <varray name="rec_basis" >
     <v>       0.08985050      -0.00001641      -0.00002578 </v>
     <v>      -0.00001916       0.10527055       0.00002560 </v>
     <v>      -0.00002577       0.00002192       0.08967620 </v>
    </varray>
   </crystal>
   <varray name="positions" >
    <v>       0.37242538      -0.00016098       0.43665229 </v>
    <v>       0.12734675       0.99949829       0.18740546 </v>
    <v>       0.37276667       0.00016645       0.18706290 </v>
    <v>       0.62551609       0.99918725       0.43604716 </v>
    <v>       0.87820134       0.00044112       0.44084773 </v>
    <v>       0.62191050       0.00018004       0.18743635 </v>
    <v>       0.37240362       0.00051763       0.93713681 </v>
    <v>       0.12316733       0.00015955       0.68645738 </v>
    <v>       0.37068400       0.00019165       0.68672928 </v>
    <v>       0.62340903       0.00050349       0.93774646 </v>
    <v>       0.87745147       0.00016739       0.19160109 </v>
    <v>       0.88123397      -0.00040089       0.92892081 </v>
    <v>       0.62790288       0.99928766       0.68586871 </v>
    <v>       0.00332809       0.30083462       0.06204171 </v>
    <v>       0.24951096       0.70981179       0.06231056 </v>
    <v>       0.24902093       0.29001110       0.31392363 </v>
    <v>       0.49810281       0.70458067       0.31308127 </v>
    <v>       0.49804870       0.29561937       0.06311607 </v>
    <v>       0.74963879       0.69430080       0.06290563 </v>
    <v>       0.75011208       0.30075470       0.31422383 </v>
    <v>       0.00238570       0.70446234       0.31497654 </v>
    <v>       0.00144576       0.28542168       0.56293384 </v>
    <v>       0.24857071       0.70993300       0.56228746 </v>
    <v>       0.24862278       0.29010730       0.81265279 </v>
    <v>       0.49758401       0.69938141       0.81278821 </v>
    <v>       0.49803099       0.30063127       0.56219197 </v>
    <v>       0.75224511       0.70442540       0.56295446 </v>
    <v>       0.75151851       0.30047714       0.81111200 </v>
    <v>       0.00181737       0.70980311       0.81125170 </v>
    <v>       0.25016706       0.32784495       0.06288203 </v>
    <v>      -0.00220034       0.67294030       0.06333281 </v>
    <v>       0.50135613       0.32752923       0.31285119 </v>
    <v>       0.25038133       0.67204345       0.31253661 </v>
    <v>       0.75044020       0.32655918       0.06290108 </v>
    <v>       0.50174057       0.67262833       0.06252686 </v>
    <v>       0.99816313       0.32740141       0.31102200 </v>
    <v>       0.74986749       0.67289125       0.31169977 </v>
    <v>       0.25183414       0.32805182       0.56288695 </v>
    <v>      -0.00108255       0.67220307       0.56234540 </v>
    <v>       0.50148329       0.32724676       0.81266574 </v>
    <v>       0.25124610       0.67206479       0.81312344 </v>
    <v>       0.74832872       0.32713404       0.56296013 </v>
    <v>       0.50122543       0.67254438       0.56341743 </v>
    <v>       0.99821994       0.32737436       0.81471497 </v>
    <v>       0.74888593       0.67322389       0.81388127 </v>
    <v>       0.50165575       0.07715115       0.06212607 </v>
    <v>       0.25260515       0.91780704       0.06496950 </v>
    <v>       0.25301358       0.08237882       0.30967079 </v>
    <v>      -0.00579930       0.92274829       0.30673536 </v>
    <v>       0.99158748       0.07329524       0.06507176 </v>
    <v>       0.75368663       0.93064328       0.06236251 </v>
    <v>       0.75174848       0.07325517       0.30925451 </v>
    <v>       0.50150977       0.92248867       0.31241110 </v>
    <v>       0.50294731       0.07378210       0.56492448 </v>
    <v>       0.25366692       0.91754288       0.56493767 </v>
    <v>       0.25373740       0.08230379       0.81027474 </v>
    <v>      -0.00340024       0.91748531       0.81585652 </v>
    <v>       0.99899566       0.08655019       0.56206789 </v>
    <v>       0.74407011       0.92255573       0.56199271 </v>
    <v>       0.74656023       0.07377012       0.81605817 </v>
    <v>       0.50356617       0.92649667       0.81034443 </v>
   </varray>
  </structure>
  <varray name="forces" >
   <v>      -0.35919469      -0.03691378       0.03469643 </v>
   <v>       0.28021833      -0.03094076       0.01477509 </v>
   <v>      -0.17570887      -0.00011021       0.02155092 </v>
   <v>       0.02380981      -0.06692240      -0.17218225 </v>
   <v>       0.34800204       0.01511286       0.60716746 </v>
   <v>      -0.19209843       0.03747191      -0.01053856 </v>
   <v>      -0.36178008       0.03577075      -0.01945537 </v>
   <v>      -0.27073240       0.03200624      -0.03880445 </v>
   <v>      -0.36247356       0.00614343      -0.01213017 </v>
   <v>      -0.15267178       0.06818700       0.21236813 </v>
   <v>      -0.26021043       0.05701142      -0.02722165 </v>
   <v>       0.16730590       0.15843681      -0.36753848 </v>
   <v>       0.36549517       0.01125828       0.12024062 </v>
   <v>       0.17131570      -0.13726876      -0.03395247 </v>
   <v>      -0.12515281      -1.07823561      -0.09896886 </v>
   <v>      -0.12619802       1.13811007       0.17801228 </v>
   <v>      -0.10472238      -0.17565562       0.04602756 </v>
   <v>      -0.07891613       0.10091788      -0.00549739 </v>
   <v>       0.01142806       0.19695301       0.01801296 </v>
   <v>       0.02469655      -0.08036550       0.01723622 </v>
   <v>       0.22549739      -0.14575218       0.14628391 </v>
   <v>       0.14087335       2.63105419      -0.03654566 </v>
   <v>      -0.08983378      -1.15490988      -0.10567799 </v>
   <v>      -0.06988016       1.10352005       0.01998570 </v>
   <v>      -0.16381323       0.09543726      -0.05734269 </v>
   <v>      -0.20336174      -0.03317808      -0.00414064 </v>
   <v>       0.12628732      -0.18923234       0.01479034 </v>
   <v>       0.07277829      -0.02205107      -0.07727863 </v>
   <v>       0.19474483      -1.21605915      -0.09712698 </v>
   <v>       0.02883599       0.13767610       0.01164050 </v>
   <v>      -0.22078956      -0.19659970       0.04157797 </v>
   <v>       0.12476920       0.16493158      -0.00232208 </v>
   <v>       0.04076507      -0.14481699      -0.03612568 </v>
   <v>       0.03770351       0.25513266       0.00437102 </v>
   <v>       0.12903897      -0.15549702      -0.02539131 </v>
   <v>      -0.20371366       0.14728280      -0.21780077 </v>
   <v>       0.02032165      -0.19551541      -0.08701671 </v>
   <v>       0.21748858       0.16610698       0.01083936 </v>
   <v>      -0.12057815      -0.06005591      -0.06673355 </v>
   <v>       0.14719709       0.21930348      -0.02618581 </v>
   <v>       0.13762816      -0.14049597       0.01085465 </v>
   <v>      -0.17017708       0.10688567       0.02021742 </v>
   <v>       0.11876423      -0.24621668       0.06142151 </v>
   <v>      -0.20556712       0.03664801       0.22536420 </v>
   <v>      -0.06619496      -0.12862410       0.06302239 </v>
   <v>      -0.00289929      -0.09763364      -0.00012668 </v>
   <v>       0.51044140       1.19747554       0.49630045 </v>
   <v>       0.51796108      -1.26614807      -0.52236977 </v>
   <v>      -0.45767944      -0.10257493      -0.43128000 </v>
   <v>      -0.76592291       0.54378838       0.27421741 </v>
   <v>       0.55726398      -0.63702153      -0.09146760 </v>
   <v>       0.15355392       0.39319000      -0.13102129 </v>
   <v>       0.00940749       0.16634662       0.00106316 </v>
   <v>       0.28109377       0.33614452       0.22624361 </v>
   <v>       0.52730477       1.25852235       0.48803673 </v>
   <v>       0.50625699      -1.21872329      -0.47219687 </v>
   <v>      -0.07135941       0.95184082       0.03096120 </v>
   <v>      -0.07591306      -2.84301357      -0.00176127 </v>
   <v>      -0.64009580       0.01715643      -0.27775012 </v>
   <v>      -0.40736500       0.37617513       0.39704168 </v>
   <v>       0.28675536      -0.36146611      -0.26036914 </v>
  </varray>
  <varray name="stress" >
   <v>       7.08521275      -1.18748080      -0.71700155 </v>
   <v>      -1.18748061      11.23644939       0.55428152 </v>
   <v>      -0.71700177       0.55428166       4.10433627 </v>
  </varray>
  <energy>
   <i name="e_fr_energy">   -312.21465698 </i>
   <i name="e_wo_entrp">   -312.21465698 </i>
   <i name="e_0_energy">      0.00000000 </i>
  </energy>
  <time name="totalsc">  700.34  705.20</time>
 </calculation>
 <calculation>
  <scstep>
   <time name="dav">   44.11   44.31</time>
   <time name="total">   44.62   44.83</time>
   <energy>
    <i name="alphaZ">   1087.60568226 </i>
    <i name="ewald"> -31007.14653356 </i>
    <i name="hartreedc"> -12862.44564310 </i>
    <i name="XCdc">   1419.91841117 </i>
    <i name="pawpsdc">  44213.63395834 </i>
    <i name="pawaedc"> -43694.64958470 </i>
    <i name="eentropy">      0.00000000 </i>
    <i name="bandstr">  -4245.31796690 </i>
    <i name="atom">  44791.06186932 </i>
    <i name="e_fr_energy">   -297.33980717 </i>
    <i name="e_wo_entrp">   -297.33980717 </i>
    <i name="e_0_energy">   -297.33980717 </i>
   </energy>
  </scstep>
  <scstep>
   <time name="dav">   45.00   45.88</time>
   <time name="total">   45.52   46.42</time>
   <energy>
    <i name="e_fr_energy">   -297.37820295 </i>
    <i name="e_wo_entrp">   -297.37820295 </i>
    <i name="e_0_energy">   -297.37820295 </i>
   </energy>
  </scstep>
  <scstep>
   <time name="dav">   55.97   56.07</time>
   <time name="total">   56.49   56.62</time>
   <energy>
    <i name="e_fr_energy">   -297.37457895 </i>
    <i name="e_wo_entrp">   -297.37457895 </i>
    <i name="e_0_energy">   -297.37457895 </i>
   </energy>
  </scstep>
  <scstep>
   <time name="dav">   51.12   51.48</time>
   <time name="total">   51.64   52.03</time>
   <energy>
    <i name="e_fr_energy">   -297.37250183 </i>
    <i name="e_wo_entrp">   -297.37250183 </i>
    <i name="e_0_energy">   -297.37250183 </i>
   </energy>
  </scstep>
  <scstep>
   <time name="dav">   56.52   56.64</time>
   <time name="total">   57.04   57.22</time>
   <energy>
    <i name="e_fr_energy">   -297.37243156 </i>
    <i name="e_wo_entrp">   -297.37243156 </i>
    <i name="e_0_energy">   -297.37243156 </i>
   </energy>
  </scstep>
  <scstep>
   <time name="dav">   52.38   52.91</time>
   <time name="total">   52.89   53.44</time>
   <energy>
    <i name="e_fr_energy">   -297.37239821 </i>
    <i name="e_wo_entrp">   -297.37239821 </i>
    <i name="e_0_energy">   -297.37239821 </i>
   </energy>
  </scstep>
  <scstep>
   <time name="dav">   51.19   51.69</time>
   <time name="total">   51.70   52.25</time>
   <energy>
    <i name="e_fr_energy">   -297.37236353 </i>
    <i name="e_wo_entrp">   -297.37236353 </i>
    <i name="e_0_energy">   -297.37236353 </i>
   </energy>
  </scstep>
  <scstep>
   <time name="dav">   58.88   59.56</time>
   <time name="total">   59.39   60.09</time>
   <energy>
    <i name="e_fr_energy">   -297.37235744 </i>
    <i name="e_wo_entrp">   -297.37235744 </i>
    <i name="e_0_energy">   -297.37235744 </i>
   </energy>
  </scstep>
  <scstep>
   <time name="dav">   51.78   52.14</time>
   <time name="total">   51.83   52.22</time>
   <energy>
    <i name="alphaZ">   1087.60568226 </i>
    <i name="ewald"> -31007.14653356 </i>
    <i name="hartreedc"> -12880.80092283 </i>
    <i name="XCdc">   1420.74898947 </i>
    <i name="pawpsdc">  44153.96682481 </i>
    <i name="pawaedc"> -43634.39404107 </i>
    <i name="eentropy">      0.00000000 </i>
    <i name="bandstr">  -4228.41422663 </i>
    <i name="atom">  44791.06186932 </i>
    <i name="e_fr_energy">   -297.37235823 </i>
    <i name="e_wo_entrp">   -297.37235823 </i>
    <i name="e_0_energy">   -297.37235823 </i>
   </energy>
  </scstep>
  <structure>
   <crystal>
    <varray name="basis" >
     <v>      11.13617275       0.00175233       0.00276833 </v>
     <v>       0.00150091       9.50945146      -0.00200926 </v>
     <v>       0.00276929      -0.00234666      11.15542150 </v>
    </varray>
    <i name="volume">   1181.34664605 </i>
    <varray name="rec_basis" >
     <v>       0.08979747      -0.00001418      -0.00002229 </v>
     <v>      -0.00001655       0.10515854       0.00002213 </v>
     <v>      -0.00002229       0.00001894       0.08964252 </v>
    </varray>
   </crystal>
   <varray name="positions" >
    <v>       0.37282563      -0.00011621       0.43668153 </v>
    <v>       0.12697727       0.99954464       0.18733340 </v>
    <v>       0.37301555       0.00016687       0.18703683 </v>
    <v>       0.62549902       0.99927572       0.43615810 </v>
    <v>       0.87782194       0.00040431       0.44031165 </v>
    <v>       0.62227500       0.00013387       0.18735989 </v>
    <v>       0.37280684       0.00047044       0.93710072 </v>
    <v>       0.12336210       0.00011623       0.68651293 </v>
    <v>       0.37121406       0.00018861       0.68674810 </v>
    <v>       0.62367653       0.00041351       0.93762822 </v>
    <v>       0.87706802       0.00016765       0.19096346 </v>
    <v>       0.88044464      -0.00032306       0.92999258 </v>
    <v>       0.62745825       0.99936263       0.68600382 </v>
    <v>       0.00289640       0.30006997       0.06214523 </v>
    <v>       0.24959462       0.70913412       0.06237771 </v>
    <v>       0.24913550       0.29071271       0.31377498 </v>
    <v>       0.49834141       0.70461168       0.31304599 </v>
    <v>       0.49832972       0.29556112       0.06307472 </v>
    <v>       0.74970489       0.69572464       0.06289302 </v>
    <v>       0.75007957       0.30000071       0.31403445 </v>
    <v>       0.00204612       0.70450943       0.31468595 </v>
    <v>       0.00126792       0.28674519       0.56291747 </v>
    <v>       0.24878132       0.70923887       0.56235769 </v>
    <v>       0.24879106       0.29079591       0.81267543 </v>
    <v>       0.49789253       0.70011685       0.81279256 </v>
    <v>       0.49831447       0.29989401       0.56227504 </v>
    <v>       0.75195954       0.70447756       0.56293508 </v>
    <v>       0.75129599       0.29976091       0.81134215 </v>
    <v>       0.00155449       0.70912672       0.81146304 </v>
    <v>       0.25015128       0.32769931       0.06287903 </v>
    <v>      -0.00189651       0.67297947       0.06326900 </v>
    <v>       0.50116630       0.32742641       0.31285241 </v>
    <v>       0.25032306       0.67220424       0.31258025 </v>
    <v>       0.75038751       0.32658776       0.06289556 </v>
    <v>       0.50151230       0.67270991       0.06257185 </v>
    <v>       0.99840432       0.32731588       0.31126967 </v>
    <v>       0.74987858       0.67293718       0.31185617 </v>
    <v>       0.25159329       0.32787820       0.56288335 </v>
    <v>      -0.00092968       0.67234220       0.56241475 </v>
    <v>       0.50127628       0.32718222       0.81269197 </v>
    <v>       0.25107110       0.67222268       0.81308801 </v>
    <v>       0.74856113       0.32708466       0.56294656 </v>
    <v>       0.50106674       0.67263729       0.56334235 </v>
    <v>       0.99845360       0.32729236       0.81446484 </v>
    <v>       0.74902963       0.67322465       0.81374357 </v>
    <v>       0.50141462       0.07726351       0.06217117 </v>
    <v>       0.25223587       0.91837782       0.06463145 </v>
    <v>       0.25262424       0.08178303       0.31004676 </v>
    <v>      -0.00499897       0.92264966       0.30750678 </v>
    <v>       0.99270573       0.07392963       0.06471952 </v>
    <v>       0.75317151       0.92947505       0.06237555 </v>
    <v>       0.75152974       0.07389550       0.30968680 </v>
    <v>       0.50132349       0.92242522       0.31241773 </v>
    <v>       0.50253184       0.07435085       0.56459251 </v>
    <v>       0.25315429       0.91814948       0.56460396 </v>
    <v>       0.25325036       0.08171816       0.81056933 </v>
    <v>      -0.00292358       0.91809947       0.81539867 </v>
    <v>       0.99911388       0.08538903       0.56212047 </v>
    <v>       0.74485316       0.92248300       0.56205546 </v>
    <v>       0.74704225       0.07434026       0.81557312 </v>
    <v>       0.50310225       0.92589032       0.81062961 </v>
   </varray>
  </structure>
  <varray name="forces" >
   <v>      -0.40429338      -0.04046130       0.02406699 </v>
   <v>       0.32786987      -0.03527724       0.02904432 </v>
   <v>      -0.21163679       0.00004491       0.02481340 </v>
   <v>       0.02483658      -0.07561755      -0.17398272 </v>
   <v>       0.39089340       0.02343849       0.65116465 </v>
   <v>      -0.25040964       0.04113805       0.00819799 </v>
   <v>      -0.40679900       0.03990782      -0.00943382 </v>
   <v>      -0.28070969       0.03719607      -0.04681741 </v>
   <v>      -0.43855186       0.00574087      -0.01481306 </v>
   <v>      -0.19288406       0.07758729       0.21077697 </v>
   <v>      -0.10943307       0.03684703       0.13990725 </v>
   <v>       0.35195531       0.09604212      -0.58365532 </v>
   <v>       0.42236542      -0.00864824       0.06567330 </v>
   <v>       0.25222599       0.00417272      -0.05617589 </v>
   <v>      -0.12287021      -0.73515548      -0.09767788 </v>
   <v>      -0.13000271       0.77804558       0.18400995 </v>
   <v>      -0.14732538      -0.15686277       0.04839566 </v>
   <v>      -0.13385817       0.09739151       0.00477800 </v>
   <v>      -0.00615985      -0.02272980       0.01841329 </v>
   <v>       0.02867780       0.05271623       0.05918883 </v>
   <v>       0.27512745      -0.13833981       0.19599069 </v>
   <v>       0.15473626       1.73799883      -0.03048713 </v>
   <v>      -0.11956256      -0.79390426      -0.10413648 </v>
   <v>      -0.09258465       0.75244392       0.00944714 </v>
   <v>      -0.21722288      -0.03749234      -0.05057967 </v>
   <v>      -0.24557340       0.09353177      -0.02338608 </v>
   <v>       0.17817172      -0.17444738       0.01732139 </v>
   <v>       0.11808913       0.09944210      -0.12105186 </v>
   <v>       0.22164775      -0.85228640      -0.12689520 </v>
   <v>       0.02720779       0.14857301       0.01039515 </v>
   <v>      -0.26379717      -0.17933680       0.05074744 </v>
   <v>       0.15281581       0.16374201      -0.00170497 </v>
   <v>       0.04882395      -0.15806185      -0.04091767 </v>
   <v>       0.04546081       0.21889205       0.00504261 </v>
   <v>       0.16632434      -0.15163738      -0.03257051 </v>
   <v>      -0.23351487       0.14618372      -0.24701362 </v>
   <v>       0.01530959      -0.17915075      -0.11277101 </v>
   <v>       0.24791873       0.18050719       0.00932761 </v>
   <v>      -0.14154417      -0.08095992      -0.07497558 </v>
   <v>       0.17565958       0.20375879      -0.02933896 </v>
   <v>       0.16236181      -0.15414811       0.01826201 </v>
   <v>      -0.20211201       0.10383945       0.02079101 </v>
   <v>       0.13971473      -0.23198036       0.07109273 </v>
   <v>      -0.23459611       0.05010820       0.25531508 </v>
   <v>      -0.09079770      -0.11285635       0.08762223 </v>
   <v>       0.05404172      -0.10555282      -0.01085365 </v>
   <v>       0.52305254       0.86142536       0.50432491 </v>
   <v>       0.53365952      -0.91188574      -0.53439943 </v>
   <v>      -0.61220835      -0.04677295      -0.58301406 </v>
   <v>      -0.93613946       0.36487293       0.33221647 </v>
   <v>       0.60783450      -0.40186957      -0.08207087 </v>
   <v>       0.19148216       0.23595612      -0.22138688 </v>
   <v>       0.05202809       0.15530185      -0.00075422 </v>
   <v>       0.34494754       0.19817662       0.27611245 </v>
   <v>       0.56995639       0.90333650       0.49734245 </v>
   <v>       0.54546952      -0.87500895      -0.47497569 </v>
   <v>      -0.18906915       0.65865284       0.15012205 </v>
   <v>      -0.08356298      -1.96039920      -0.01140799 </v>
   <v>      -0.74385678       0.03467250      -0.24809438 </v>
   <v>      -0.46959298       0.23385029       0.45859963 </v>
   <v>       0.36000321      -0.21469138      -0.29316160 </v>
  </varray>
  <varray name="stress" >
   <v>       4.86963741      -0.89739630      -0.54797536 </v>
   <v>      -0.89739643       6.04002905       0.32732298 </v>
   <v>      -0.54797566       0.32732323       2.68393269 </v>
  </varray>
  <energy>
   <i name="e_fr_energy">   -312.25608659 </i>
   <i name="e_wo_entrp">   -312.25608659 </i>
   <i name="e_0_energy">      0.00000000 </i>
  </energy>
  <time name="totalsc">  548.38  552.98</time>
 </calculation>
 <calculation>
  <scstep>
   <time name="dav">   42.53   42.59</time>
   <time name="total">   43.05   43.12</time>
   <energy>
    <i name="alphaZ">   1084.44494501 </i>
    <i name="ewald"> -31088.19809327 </i>
    <i name="hartreedc"> -12765.26106398 </i>
    <i name="XCdc">   1418.40145890 </i>
    <i name="pawpsdc">  44154.10349523 </i>
    <i name="pawaedc"> -43634.53111345 </i>
    <i name="eentropy">      0.00000000 </i>
    <i name="bandstr">  -4256.96692186 </i>
    <i name="atom">  44791.06186932 </i>
    <i name="e_fr_energy">   -296.94542411 </i>
    <i name="e_wo_entrp">   -296.94542411 </i>
    <i name="e_0_energy">   -296.94542411 </i>
   </energy>
  </scstep>
  <scstep>
   <time name="dav">   46.38   47.21</time>
   <time name="total">   46.85   47.75</time>
   <energy>
    <i name="e_fr_energy">   -297.93965862 </i>
    <i name="e_wo_entrp">   -297.93965862 </i>
    <i name="e_0_energy">   -297.93965862 </i>
   </energy>
  </scstep>
  <scstep>
   <time name="dav">   60.41   60.78</time>
   <time name="total">   61.05   61.44</time>
   <energy>
    <i name="e_fr_energy">   -297.93025451 </i>
    <i name="e_wo_entrp">   -297.93025451 </i>
    <i name="e_0_energy">   -297.93025451 </i>
   </energy>
  </scstep>
  <scstep>
   <time name="dav">   48.09   48.26</time>
   <time name="total">   48.61   48.80</time>
   <energy>
    <i name="e_fr_energy">   -297.90932278 </i>
    <i name="e_wo_entrp">   -297.90932278 </i>
    <i name="e_0_energy">   -297.90932278 </i>
   </energy>
  </scstep>
  <scstep>
   <time name="dav">   52.52   53.56</time>
   <time name="total">   53.03   54.09</time>
   <energy>
    <i name="e_fr_energy">   -297.89843842 </i>
    <i name="e_wo_entrp">   -297.89843842 </i>
    <i name="e_0_energy">   -297.89843842 </i>
   </energy>
  </scstep>
  <scstep>
   <time name="dav">   48.65   49.12</time>
   <time name="total">   49.16   49.65</time>
   <energy>
    <i name="e_fr_energy">   -297.89841097 </i>
    <i name="e_wo_entrp">   -297.89841097 </i>
    <i name="e_0_energy">   -297.89841097 </i>
   </energy>
  </scstep>
  <scstep>
   <time name="dav">   55.04   55.92</time>
   <time name="total">   55.54   56.45</time>
   <energy>
    <i name="e_fr_energy">   -297.89842991 </i>
    <i name="e_wo_entrp">   -297.89842991 </i>
    <i name="e_0_energy">   -297.89842991 </i>
   </energy>
  </scstep>
  <scstep>
   <time name="dav">   49.89   50.11</time>
   <time name="total">   50.41   50.65</time>
   <energy>
    <i name="e_fr_energy">   -297.89836831 </i>
    <i name="e_wo_entrp">   -297.89836831 </i>
    <i name="e_0_energy">   -297.89836831 </i>
   </energy>
  </scstep>
  <scstep>
   <time name="dav">   54.55   54.91</time>
   <time name="total">   55.07   55.46</time>
   <energy>
    <i name="e_fr_energy">   -297.89836133 </i>
    <i name="e_wo_entrp">   -297.89836133 </i>
    <i name="e_0_energy">   -297.89836133 </i>
   </energy>
  </scstep>
  <scstep>
   <time name="dav">   49.24   49.32</time>
   <time name="total">   49.76   49.87</time>
   <energy>
    <i name="e_fr_energy">   -297.89836461 </i>
    <i name="e_wo_entrp">   -297.89836461 </i>
    <i name="e_0_energy">   -297.89836461 </i>
   </energy>
  </scstep>
  <scstep>
   <time name="dav">   46.09   46.53</time>
   <time name="total">   46.14   46.60</time>
   <energy>
    <i name="alphaZ">   1084.44494501 </i>
    <i name="ewald"> -31088.19809327 </i>
    <i name="hartreedc"> -12787.67957560 </i>
    <i name="XCdc">   1419.44379703 </i>
    <i name="pawpsdc">  43927.39797425 </i>
    <i name="pawaedc"> -43404.44281664 </i>
    <i name="eentropy">      0.00000000 </i>
    <i name="bandstr">  -4239.92646524 </i>
    <i name="atom">  44791.06186932 </i>
    <i name="e_fr_energy">   -297.89836513 </i>
    <i name="e_wo_entrp">   -297.89836513 </i>
    <i name="e_0_energy">   -297.89836513 </i>
   </energy>
  </scstep>
  <structure>
   <crystal>
    <varray name="basis" >
     <v>      11.15137356      -0.00327206       0.00032580 </v>
     <v>      -0.00278869       9.51815090      -0.00098144 </v>
     <v>       0.00032544      -0.00114246      11.16247254 </v>
    </varray>
    <i name="volume">   1184.78981425 </i>
    <varray name="rec_basis" >
     <v>       0.08967506       0.00002627      -0.00000261 </v>
     <v>       0.00003083       0.10506243       0.00001075 </v>
     <v>      -0.00000261       0.00000924       0.08958589 </v>
    </varray>
   </crystal>
   <varray name="positions" >
    <v>       0.37017017      -0.00042197       0.43671367 </v>
    <v>       0.12923745       0.99926018       0.18762657 </v>
    <v>       0.37153193       0.00016626       0.18720343 </v>
    <v>       0.62564451       0.99869208       0.43516215 </v>
    <v>       0.88037074       0.00060779       0.44432581 </v>
    <v>       0.62035318       0.00044679       0.18757638 </v>
    <v>       0.37013374       0.00077983       0.93714722 </v>
    <v>       0.12171592       0.00040292       0.68618417 </v>
    <v>       0.36810572       0.00022447       0.68664145 </v>
    <v>       0.62222747       0.00101061       0.93879652 </v>
    <v>       0.87751779       0.00034915       0.19306797 </v>
    <v>       0.88380450      -0.00003450       0.92498872 </v>
    <v>       0.63029529       0.99914165       0.68595865 </v>
    <v>       0.00498562       0.30190656       0.06166248 </v>
    <v>       0.24887846       0.70711446       0.06180645 </v>
    <v>       0.24831447       0.29288753       0.31490354 </v>
    <v>       0.49715341       0.70376378       0.31333351 </v>
    <v>       0.49709756       0.29618035       0.06319331 </v>
    <v>       0.74952177       0.69223052       0.06300056 </v>
    <v>       0.75027768       0.30205187       0.31473363 </v>
    <v>       0.00401281       0.70371461       0.31620105 </v>
    <v>       0.00234166       0.29218147       0.56282956 </v>
    <v>       0.24777747       0.70696825       0.56175187 </v>
    <v>       0.24800033       0.29287501       0.81266218 </v>
    <v>       0.49624369       0.69818503       0.81256958 </v>
    <v>       0.49660557       0.30210705       0.56197944 </v>
    <v>       0.75338934       0.70349235       0.56305373 </v>
    <v>       0.75232267       0.30195284       0.81028563 </v>
    <v>       0.00311426       0.70652550       0.81042569 </v>
    <v>       0.25030338       0.32877869       0.06292999 </v>
    <v>      -0.00373052       0.67200133       0.06363433 </v>
    <v>       0.50226151       0.32847888       0.31284233 </v>
    <v>       0.25066749       0.67104195       0.31230414 </v>
    <v>       0.75070420       0.32760048       0.06293005 </v>
    <v>       0.50275604       0.67176740       0.06232757 </v>
    <v>       0.99684690       0.32824064       0.30964183 </v>
    <v>       0.74991699       0.67194353       0.31100967 </v>
    <v>       0.25321064       0.32918153       0.56293107 </v>
    <v>      -0.00188952       0.67161210       0.56193446 </v>
    <v>       0.50250861       0.32834127       0.81250616 </v>
    <v>       0.25217150       0.67108655       0.81324879 </v>
    <v>       0.74715674       0.32771473       0.56306660 </v>
    <v>       0.50203290       0.67127136       0.56381965 </v>
    <v>       0.99690910       0.32773491       0.81613407 </v>
    <v>       0.74830538       0.67266584       0.81443960 </v>
    <v>       0.50221551       0.07647551       0.06201817 </v>
    <v>       0.25531727       0.92127483       0.06755761 </v>
    <v>       0.25580029       0.07869551       0.30690284 </v>
    <v>      -0.00948107       0.92265290       0.30322024 </v>
    <v>       0.98610142       0.07422507       0.06695608 </v>
    <v>       0.75695840       0.93026540       0.06199814 </v>
    <v>       0.75285676       0.07353913       0.30772772 </v>
    <v>       0.50198538       0.92334260       0.31239889 </v>
    <v>       0.50497288       0.07397830       0.56654342 </v>
    <v>       0.25677406       0.92116828       0.56749041 </v>
    <v>       0.25670829       0.07878861       0.80786895 </v>
    <v>      -0.00485391       0.91989254       0.81711946 </v>
    <v>       0.99848207       0.07846910       0.56194574 </v>
    <v>       0.73985680       0.92282720       0.56086299 </v>
    <v>       0.74391658       0.07414127       0.81865663 </v>
    <v>       0.50572275       0.92627012       0.80871749 </v>
   </varray>
  </structure>
  <varray name="forces" >
   <v>      -0.27722887      -0.03740460       0.04599461 </v>
   <v>       0.19813057      -0.03119024       0.00818902 </v>
   <v>      -0.07901619      -0.00145564       0.01728014 </v>
   <v>      -0.01345307      -0.04874683      -0.13490039 </v>
   <v>       0.26576787       0.03372964       0.46449167 </v>
   <v>      -0.07013356       0.03103443      -0.02685479 </v>
   <v>      -0.28547474       0.03101522      -0.02880582 </v>
   <v>      -0.23891256       0.04857541      -0.05100434 </v>
   <v>      -0.12521858       0.01001364      -0.00616266 </v>
   <v>      -0.07534043       0.04527205       0.18380551 </v>
   <v>      -0.68139970       0.12173840      -0.44602783 </v>
   <v>      -0.43159018       0.33911864       0.32686215 </v>
   <v>       0.09589919       0.06947611       0.22357708 </v>
   <v>      -0.16566930      -0.41006469       0.07760905 </v>
   <v>      -0.03589652       0.26232604      -0.01673867 </v>
   <v>       0.00861154      -0.32862629       0.01220945 </v>
   <v>       0.10932609       0.22048997       0.02868078 </v>
   <v>       0.15158869      -0.21807104      -0.03793924 </v>
   <v>       0.06677338       0.54740817       0.01212308 </v>
   <v>      -0.02225064      -0.35955456      -0.13258319 </v>
   <v>      -0.06230757       0.22503989      -0.14860188 </v>
   <v>      -0.05279636      -1.05371476      -0.09351131 </v>
   <v>       0.18106153       0.34120416      -0.01618554 </v>
   <v>       0.14666413      -0.32013742       0.00896171 </v>
   <v>       0.12113297       0.43082785      -0.08690503 </v>
   <v>       0.07991617      -0.41366824       0.07558661 </v>
   <v>      -0.19025979       0.14587298      -0.00369165 </v>
   <v>      -0.16079369      -0.27193829       0.09037856 </v>
   <v>      -0.05213705       0.06746028       0.15264037 </v>
   <v>       0.02195772       0.16480316       0.00422112 </v>
   <v>       0.01911412      -0.26273040      -0.01481505 </v>
   <v>      -0.02176893       0.18785037      -0.00461025 </v>
   <v>      -0.00504133      -0.17700145      -0.00384184 </v>
   <v>       0.00814995       0.32583053      -0.00126723 </v>
   <v>      -0.05043069      -0.17332285       0.00856311 </v>
   <v>      -0.00638924       0.18738484      -0.01209357 </v>
   <v>       0.03603695      -0.23519233       0.02960814 </v>
   <v>      -0.03400361       0.21043887       0.00833287 </v>
   <v>       0.02322075      -0.07979748       0.00456778 </v>
   <v>       0.00208142       0.27178011      -0.00864660 </v>
   <v>      -0.03022491      -0.17625989      -0.01307517 </v>
   <v>       0.01260363       0.13996997       0.01808740 </v>
   <v>       0.00647303      -0.30995937       0.00808204 </v>
   <v>      -0.00857966       0.04802570       0.01593167 </v>
   <v>       0.04559988      -0.17478905      -0.04945714 </v>
   <v>      -0.04509043       0.23274767       0.00429890 </v>
   <v>       0.32438705      -0.21064337       0.31620668 </v>
   <v>       0.32218300       0.25496350      -0.31580729 </v>
   <v>       0.09745853      -0.65206906       0.08052146 </v>
   <v>      -0.25009510       0.90896836       0.00197815 </v>
   <v>       0.30349696      -0.94378366      -0.10373322 </v>
   <v>      -0.02517681       0.68051069       0.05786421 </v>
   <v>      -0.01860374      -0.23368908       0.01859829 </v>
   <v>       0.14651114       0.70885042       0.09073959 </v>
   <v>       0.30327977      -0.32443475       0.27007935 </v>
   <v>       0.28367923       0.27293335      -0.28091996 </v>
   <v>       0.44531770      -0.56402301      -0.44925788 </v>
   <v>       0.02469428       0.90029210       0.05172631 </v>
   <v>      -0.28561570      -0.40174560      -0.32937202 </v>
   <v>      -0.19868054       0.62918249       0.22521999 </v>
   <v>       0.14846224      -0.68112108      -0.12620726 </v>
  </varray>
  <varray name="stress" >
   <v>       6.47477811      -1.83633469      -1.10153890 </v>
   <v>      -1.83633476     -25.08164156       0.54702616 </v>
   <v>      -1.10153885       0.54702626       3.52943252 </v>
  </varray>
  <energy>
   <i name="e_fr_energy">   -312.76929331 </i>
   <i name="e_wo_entrp">   -312.76929331 </i>
   <i name="e_0_energy">      0.00000000 </i>
  </energy>
  <time name="totalsc">  636.30  641.87</time>
 </calculation>
 <calculation>
  <scstep>
   <time name="dav">   40.74   40.81</time>
   <time name="total">   41.34   41.41</time>
   <energy>
    <i name="alphaZ">   1084.73215820 </i>
    <i name="ewald"> -31081.57564990 </i>
    <i name="hartreedc"> -12797.53853801 </i>
    <i name="XCdc">   1419.65063993 </i>
    <i name="pawpsdc">  43927.38634261 </i>
    <i name="pawaedc"> -43404.43810955 </i>
    <i name="eentropy">      0.00000000 </i>
    <i name="bandstr">  -4237.17310082 </i>
    <i name="atom">  44791.06186932 </i>
    <i name="e_fr_energy">   -297.89438823 </i>
    <i name="e_wo_entrp">   -297.89438823 </i>
    <i name="e_0_energy">   -297.89438823 </i>
   </energy>
  </scstep>
  <scstep>
   <time name="dav">   44.67   44.94</time>
   <time name="total">   45.19   45.48</time>
   <energy>
    <i name="e_fr_energy">   -297.90236346 </i>
    <i name="e_wo_entrp">   -297.90236346 </i>
    <i name="e_0_energy">   -297.90236346 </i>
   </energy>
  </scstep>
  <scstep>
   <time name="dav">   60.32   60.49</time>
   <time name="total">   60.85   61.11</time>
   <energy>
    <i name="e_fr_energy">   -297.90232451 </i>
    <i name="e_wo_entrp">   -297.90232451 </i>
    <i name="e_0_energy">   -297.90232451 </i>
   </energy>
  </scstep>
  <scstep>
   <time name="dav">   51.66   52.56</time>
   <time name="total">   52.16   53.10</time>
   <energy>
    <i name="e_fr_energy">   -297.90207180 </i>
    <i name="e_wo_entrp">   -297.90207180 </i>
    <i name="e_0_energy">   -297.90207180 </i>
   </energy>
  </scstep>
  <scstep>
   <time name="dav">   47.10   47.95</time>
   <time name="total">   47.62   48.52</time>
   <energy>
    <i name="e_fr_energy">   -297.90200014 </i>
    <i name="e_wo_entrp">   -297.90200014 </i>
    <i name="e_0_energy">   -297.90200014 </i>
   </energy>
  </scstep>
  <scstep>
   <time name="dav">   50.47   51.43</time>
   <time name="total">   50.97   51.99</time>
   <energy>
    <i name="e_fr_energy">   -297.90200139 </i>
    <i name="e_wo_entrp">   -297.90200139 </i>
    <i name="e_0_energy">   -297.90200139 </i>
   </energy>
  </scstep>
  <scstep>
   <time name="dav">   57.28   58.33</time>
   <time name="total">   57.79   58.86</time>
   <energy>
    <i name="e_fr_energy">   -297.90200217 </i>
    <i name="e_wo_entrp">   -297.90200217 </i>
    <i name="e_0_energy">   -297.90200217 </i>
   </energy>
  </scstep>
  <scstep>
   <time name="dav">   40.09   40.56</time>
   <time name="total">   40.15   40.66</time>
   <energy>
    <i name="alphaZ">   1084.73215820 </i>
    <i name="ewald"> -31081.57564990 </i>
    <i name="hartreedc"> -12795.55499806 </i>
    <i name="XCdc">   1419.55838727 </i>
    <i name="pawpsdc">  43946.40436868 </i>
    <i name="pawaedc"> -43423.73690556 </i>
    <i name="eentropy">      0.00000000 </i>
    <i name="bandstr">  -4238.79123178 </i>
    <i name="atom">  44791.06186932 </i>
    <i name="e_fr_energy">   -297.90200183 </i>
[...]
       <r>    8.7877    0.0000 </r>
       <r>    8.8033    0.0000 </r>
       <r>    8.8317    0.0000 </r>
       <r>    8.8766    0.0000 </r>
       <r>    8.9204    0.0000 </r>
      </set>
     </set>
    </set>
   </array>
  </eigenvalues>
  <separator name="orbital magnetization" >
   <v name="MAGDIPOLOUT">      0.00000000      0.00000000      0.00000000</v>
  </separator>
  <dos>
   <i name="efermi">      4.26334062 </i>
   <total>
    <array>
     <dimension dim="1">gridpoints</dimension>
     <dimension dim="2">spin</dimension>
     <field>energy</field>
     <field>total</field>
     <field>integrated</field>
     <set>
      <set comment="spin 1">
       <r>   -42.3795     0.0000     0.0000 </r>
       <r>   -42.1982     0.0000     0.0000 </r>
       <r>   -42.0168     0.0000     0.0000 </r>
       <r>   -41.8355     0.0000     0.0000 </r>
       <r>   -41.6542     0.0000     0.0000 </r>
       <r>   -41.4729     0.0000     0.0000 </r>
       <r>   -41.2916     0.0000     0.0000 </r>
       <r>   -41.1103     0.0000     0.0000 </r>
       <r>   -40.9290     0.0000     0.0000 </r>
       <r>   -40.7476     0.0000     0.0000 </r>
       <r>   -40.5663     0.0000     0.0000 </r>
       <r>   -40.3850     0.0000     0.0000 </r>
       <r>   -40.2037     0.0000     0.0000 </r>
       <r>   -40.0224     0.0000     0.0000 </r>
       <r>   -39.8411     0.0000     4.0000 </r>
       <r>   -39.6598     0.0000     8.0000 </r>
       <r>   -39.4785     0.0000     8.0000 </r>
       <r>   -39.2971     0.0000    16.0000 </r>
       <r>   -39.1158     0.0000    20.0000 </r>
       <r>   -38.9345     0.0000    20.0000 </r>
       <r>   -38.7532     0.0000    20.0000 </r>
       <r>   -38.5719     0.0000    20.0000 </r>
       <r>   -38.3906     0.0000    20.0000 </r>
       <r>   -38.2093     0.0000    20.0000 </r>
       <r>   -38.0279     0.0000    20.0000 </r>
       <r>   -37.8466     0.0000    20.0000 </r>
       <r>   -37.6653     0.0000    20.0000 </r>
       <r>   -37.4840     0.0000    20.0000 </r>
       <r>   -37.3027     0.0000    20.0000 </r>
       <r>   -37.1214     0.0000    20.0000 </r>
       <r>   -36.9401     0.0000    20.0000 </r>
       <r>   -36.7588     0.0000    20.0000 </r>
       <r>   -36.5774     0.0000    20.0000 </r>
       <r>   -36.3961     0.0000    20.0000 </r>
       <r>   -36.2148     0.0000    20.0000 </r>
       <r>   -36.0335     0.0000    20.0000 </r>
       <r>   -35.8522     0.0000    20.0000 </r>
       <r>   -35.6709     0.0000    20.0000 </r>
       <r>   -35.4896     0.0000    20.0000 </r>
       <r>   -35.3083     0.0000    20.0000 </r>
       <r>   -35.1269     0.0000    20.0000 </r>
       <r>   -34.9456     0.0000    20.0000 </r>
       <r>   -34.7643     0.0000    20.0000 </r>
       <r>   -34.5830     0.0000    20.0000 </r>
       <r>   -34.4017     0.0000    20.0000 </r>
       <r>   -34.2204     0.0000    20.0000 </r>
       <r>   -34.0391     0.0000    20.0000 </r>
       <r>   -33.8577     0.0000    20.0000 </r>
       <r>   -33.6764     0.0000    20.0000 </r>
       <r>   -33.4951     0.0000    20.0000 </r>
       <r>   -33.3138     0.0000    20.0000 </r>
       <r>   -33.1325     0.0000    20.0000 </r>
       <r>   -32.9512     0.0000    20.0000 </r>
       <r>   -32.7699     0.0000    20.0000 </r>
       <r>   -32.5886     0.0000    20.0000 </r>
       <r>   -32.4072     0.0000    20.0000 </r>
       <r>   -32.2259     0.0000    20.0000 </r>
       <r>   -32.0446     0.0000    20.0000 </r>
       <r>   -31.8633     0.0000    20.0000 </r>
       <r>   -31.6820     0.0000    20.0000 </r>
       <r>   -31.5007     0.0000    20.0000 </r>
       <r>   -31.3194     0.0000    20.0000 </r>
       <r>   -31.1380     0.0000    20.0000 </r>
       <r>   -30.9567     0.0000    20.0000 </r>
       <r>   -30.7754     0.0000    20.0000 </r>
       <r>   -30.5941     0.0000    20.0000 </r>
       <r>   -30.4128     0.0000    20.0000 </r>
       <r>   -30.2315     0.0000    20.0000 </r>
       <r>   -30.0502     0.0000    20.0000 </r>
       <r>   -29.8689     0.0000    20.0000 </r>
       <r>   -29.6875     0.0000    20.0000 </r>
       <r>   -29.5062     0.0000    20.0000 </r>
       <r>   -29.3249     0.0000    20.0000 </r>
       <r>   -29.1436     0.0000    20.0000 </r>
       <r>   -28.9623     0.0000    20.0000 </r>
       <r>   -28.7810     0.0000    20.0000 </r>
       <r>   -28.5997     0.0000    20.0000 </r>
       <r>   -28.4184     0.0000    20.0000 </r>
       <r>   -28.2370     0.0000    20.0000 </r>
       <r>   -28.0557     0.0000    20.0000 </r>
       <r>   -27.8744     0.0000    20.0000 </r>
       <r>   -27.6931     0.0000    20.0000 </r>
       <r>   -27.5118     0.0000    20.0000 </r>
       <r>   -27.3305     0.0000    20.0000 </r>
       <r>   -27.1492     0.0000    20.0000 </r>
       <r>   -26.9678     0.0000    20.0000 </r>
       <r>   -26.7865     0.0000    20.0000 </r>
       <r>   -26.6052     0.0000    20.0000 </r>
       <r>   -26.4239     0.0000    20.0000 </r>
       <r>   -26.2426     0.0000    20.0000 </r>
       <r>   -26.0613     0.0000    20.0000 </r>
       <r>   -25.8800     0.0000    20.0000 </r>
       <r>   -25.6987     0.0000    20.0000 </r>
       <r>   -25.5173     0.0000    20.0000 </r>
       <r>   -25.3360     0.0000    20.0000 </r>
       <r>   -25.1547     0.0000    20.0000 </r>
       <r>   -24.9734     0.0000    20.0000 </r>
       <r>   -24.7921     0.0000    20.0000 </r>
       <r>   -24.6108     0.0000    20.0000 </r>
       <r>   -24.4295     0.0000    20.0000 </r>
       <r>   -24.2482     0.0000    20.0000 </r>
       <r>   -24.0668     0.0000    20.0000 </r>
       <r>   -23.8855     0.0000    20.0000 </r>
       <r>   -23.7042     0.0000    20.0000 </r>
       <r>   -23.5229     0.0000    20.0000 </r>
       <r>   -23.3416     0.0000    20.0000 </r>
       <r>   -23.1603     0.0000    20.0000 </r>
       <r>   -22.9790     0.0000    20.0000 </r>
       <r>   -22.7976     0.0000    20.0000 </r>
       <r>   -22.6163     0.0000    20.0000 </r>
       <r>   -22.4350     0.0000    20.0000 </r>
       <r>   -22.2537     0.0000    20.0000 </r>
       <r>   -22.0724     0.0000    20.0000 </r>
       <r>   -21.8911     0.0000    20.0000 </r>
       <r>   -21.7098     0.0000    20.0000 </r>
       <r>   -21.5285     0.0000    20.0000 </r>
       <r>   -21.3471     0.0000    20.0000 </r>
       <r>   -21.1658     0.0000    20.0000 </r>
       <r>   -20.9845     0.0000    20.0000 </r>
       <r>   -20.8032     0.0000    20.0000 </r>
       <r>   -20.6219     0.0000    20.0000 </r>
       <r>   -20.4406     0.0000    20.0000 </r>
       <r>   -20.2593     0.0000    20.0000 </r>
       <r>   -20.0779     0.0000    20.0000 </r>
       <r>   -19.8966     0.0000    20.0000 </r>
       <r>   -19.7153     0.0000    20.0000 </r>
       <r>   -19.5340     0.0000    20.0000 </r>
       <r>   -19.3527     0.0000    20.0000 </r>
       <r>   -19.1714     0.0000    20.0000 </r>
       <r>   -18.9901     0.0000    20.0000 </r>
       <r>   -18.8088     0.0000    20.0000 </r>
       <r>   -18.6274     0.0000    58.0000 </r>
       <r>   -18.4461     0.0000   144.0000 </r>
       <r>   -18.2648     0.0000   176.0000 </r>
       <r>   -18.0835     0.0000   180.0000 </r>
       <r>   -17.9022     0.0000   180.0000 </r>
       <r>   -17.7209     0.0000   180.0000 </r>
       <r>   -17.5396     0.0000   180.0000 </r>
       <r>   -17.3583     0.0000   180.0000 </r>
       <r>   -17.1769     0.0000   180.0000 </r>
       <r>   -16.9956     0.0000   180.0000 </r>
       <r>   -16.8143     0.0000   180.0000 </r>
       <r>   -16.6330     0.0000   180.0000 </r>
       <r>   -16.4517     0.0000   180.0000 </r>
       <r>   -16.2704     0.0000   180.0000 </r>
       <r>   -16.0891     0.0000   180.0000 </r>
       <r>   -15.9077     0.0000   180.0000 </r>
       <r>   -15.7264     0.0000   180.0000 </r>
       <r>   -15.5451     0.0000   180.0000 </r>
       <r>   -15.3638     0.0000   180.0000 </r>
       <r>   -15.1825     0.0000   180.0000 </r>
       <r>   -15.0012     0.0000   180.0000 </r>
       <r>   -14.8199     0.0000   180.0000 </r>
       <r>   -14.6386     0.0000   180.0000 </r>
       <r>   -14.4572     0.0000   180.0000 </r>
       <r>   -14.2759     0.0000   180.0000 </r>
       <r>   -14.0946     0.0000   180.0000 </r>
       <r>   -13.9133     0.0000   180.0000 </r>
       <r>   -13.7320     0.0000   180.0000 </r>
       <r>   -13.5507     0.0000   180.0000 </r>
       <r>   -13.3694     0.0000   180.0000 </r>
       <r>   -13.1880     0.0000   182.0000 </r>
       <r>   -13.0067     0.0000   184.0000 </r>
       <r>   -12.8254     0.0000   190.0000 </r>
       <r>   -12.6441     0.0000   198.0000 </r>
       <r>   -12.4628     0.0000   208.0000 </r>
       <r>   -12.2815     0.0000   212.0000 </r>
       <r>   -12.1002     0.0000   212.0000 </r>
       <r>   -11.9189     0.0000   212.0000 </r>
       <r>   -11.7375     0.0000   212.0000 </r>
       <r>   -11.5562     0.0000   212.0000 </r>
       <r>   -11.3749     0.0000   212.0000 </r>
       <r>   -11.1936     0.0000   212.0000 </r>
       <r>   -11.0123     0.0000   212.0000 </r>
       <r>   -10.8310     0.0000   212.0000 </r>
       <r>   -10.6497     0.0000   212.0000 </r>
       <r>   -10.4684     0.0000   212.0000 </r>
       <r>   -10.2870     0.0000   212.0000 </r>
       <r>   -10.1057     0.0000   212.0000 </r>
       <r>    -9.9244     0.0000   212.0000 </r>
       <r>    -9.7431     0.0000   212.0000 </r>
       <r>    -9.5618     0.0000   212.0000 </r>
       <r>    -9.3805     1.6667   212.0157 </r>
       <r>    -9.1992     9.2222   213.5901 </r>
       <r>    -9.0178    10.8870   215.3138 </r>
       <r>    -8.8365     4.2047   216.1009 </r>
       <r>    -8.6552    19.9065   219.4205 </r>
       <r>    -8.4739    36.2486   222.1761 </r>
       <r>    -8.2926    20.5753   226.8070 </r>
       <r>    -8.1113     6.7862   228.0521 </r>
       <r>    -7.9300    32.7043   234.3978 </r>
       <r>    -7.7487    24.4895   239.2718 </r>
       <r>    -7.5673    25.2939   241.7223 </r>
       <r>    -7.3860     0.0000   244.0000 </r>
       <r>    -7.2047     0.0000   244.0000 </r>
       <r>    -7.0234     0.0000   244.0000 </r>
       <r>    -6.8421     0.0000   244.0000 </r>
       <r>    -6.6608     0.0000   244.0000 </r>
       <r>    -6.4795     0.0000   244.0000 </r>
       <r>    -6.2981     1.9087   244.0329 </r>
       <r>    -6.1168    26.2062   246.4162 </r>
       <r>    -5.9355    19.9619   251.4170 </r>
       <r>    -5.7542    24.7699   253.8287 </r>
       <r>    -5.5729    25.5803   259.1303 </r>
       <r>    -5.3916    23.8587   263.1467 </r>
       <r>    -5.2103    11.3914   266.5790 </r>
       <r>    -5.0290     0.4599   268.0040 </r>
       <r>    -4.8476     9.8895   268.8695 </r>
       <r>    -4.6663    12.2146   271.1961 </r>
       <r>    -4.4850     3.9211   272.4933 </r>
       <r>    -4.3037     6.7702   273.4627 </r>
       <r>    -4.1224     7.3239   274.9987 </r>
       <r>    -3.9411     2.0925   275.6784 </r>
       <r>    -3.7598     0.8473   275.9448 </r>
       <r>    -3.5785     0.0000   276.0000 </r>
       <r>    -3.3971     0.0000   276.0000 </r>
       <r>    -3.2158     0.0000   276.0000 </r>
       <r>    -3.0345     0.0000   276.0000 </r>
       <r>    -2.8532     0.0000   276.0000 </r>
       <r>    -2.6719     0.0000   276.0000 </r>
       <r>    -2.4906     0.0000   276.0000 </r>
       <r>    -2.3093     0.0000   276.0000 </r>
       <r>    -2.1279     0.0000   276.0000 </r>
       <r>    -1.9466     0.0000   276.0000 </r>
       <r>    -1.7653     0.0000   276.0000 </r>
       <r>    -1.5840     0.0000   276.0000 </r>
       <r>    -1.4027     0.0000   276.0000 </r>
       <r>    -1.2214     5.8928   276.3203 </r>
       <r>    -1.0401     7.7910   277.7365 </r>
       <r>    -0.8588     8.4509   278.9172 </r>
       <r>    -0.6774    13.8277   281.1767 </r>
       <r>    -0.4961     8.1951   283.0175 </r>
       <r>    -0.3148    24.4605   285.7973 </r>
       <r>    -0.1335    24.1257   290.6353 </r>
       <r>     0.0478    39.4715   297.1910 </r>
       <r>     0.2291    34.2232   304.1427 </r>
       <r>     0.4104    38.8840   311.3989 </r>
       <r>     0.5917    24.6736   317.4956 </r>
       <r>     0.7731    32.2398   323.9919 </r>
       <r>     0.9544    42.5276   330.1180 </r>
       <r>     1.1357    46.1574   338.4273 </r>
       <r>     1.3170    49.0519   346.7305 </r>
       <r>     1.4983    43.5640   354.6390 </r>
       <r>     1.6796    53.5916   363.6752 </r>
       <r>     1.8609    44.1404   372.0852 </r>
       <r>     2.0423    40.0691   380.5364 </r>
       <r>     2.2236    51.0307   389.1903 </r>
       <r>     2.4049    60.6685   398.5602 </r>
       <r>     2.5862    70.1667   411.5692 </r>
       <r>     2.7675    49.1937   423.1618 </r>
       <r>     2.9488    64.5923   434.9523 </r>
       <r>     3.1301    48.8578   445.5116 </r>
       <r>     3.3114    24.5229   452.3435 </r>
       <r>     3.4928    52.6605   458.2848 </r>
       <r>     3.6741    18.9354   463.8712 </r>
       <r>     3.8554    10.4699   466.3349 </r>
       <r>     4.0367     4.4431   467.6868 </r>
       <r>     4.2180     0.0232   467.9999 </r>
       <r>     4.3993     0.0000   468.0000 </r>
       <r>     4.5806     0.0000   468.0000 </r>
       <r>     4.7620     0.0000   468.0000 </r>
       <r>     4.9433     0.0000   468.0000 </r>
       <r>     5.1246     0.0000   468.0000 </r>
       <r>     5.3059     2.8020   468.1447 </r>
       <r>     5.4872     8.2775   469.1490 </r>
       <r>     5.6685     9.8400   470.9674 </r>
       <r>     5.8498    27.9509   473.7681 </r>
       <r>     6.0311    14.1254   477.3333 </r>
       <r>     6.2125    12.7996   479.7442 </r>
       <r>     6.3938    13.2908   482.0681 </r>
       <r>     6.5751    14.6310   484.5995 </r>
       <r>     6.7564    16.2285   487.3879 </r>
       <r>     6.9377    18.4590   490.5001 </r>
       <r>     7.1190    22.6340   494.2211 </r>
       <r>     7.3003    25.2810   498.5825 </r>
       <r>     7.4816    34.5313   504.0036 </r>
       <r>     7.6630    33.0171   510.4381 </r>
       <r>     7.8443    35.6423   516.5178 </r>
       <r>     8.0256    32.8917   522.8719 </r>
       <r>     8.2069    27.8041   528.4049 </r>
       <r>     8.3882    24.3782   533.1334 </r>
       <r>     8.5695    29.6729   537.7935 </r>
       <r>     8.7508    34.7039   544.0846 </r>
       <r>     8.9322    36.4501   550.9268 </r>
       <r>     9.1135    25.1305   556.5959 </r>
       <r>     9.2948     6.8849   559.4187 </r>
       <r>     9.4761     0.8315   559.9796 </r>
       <r>     9.6574     0.0000   560.0000 </r>
       <r>     9.8387     0.0000   560.0000 </r>
       <r>    10.0200     0.0000   560.0000 </r>
       <r>    10.2013     0.0000   560.0000 </r>
       <r>    10.3827     0.0000   560.0000 </r>
       <r>    10.5640     0.0000   560.0000 </r>
       <r>    10.7453     0.0000   560.0000 </r>
       <r>    10.9266     0.0000   560.0000 </r>
       <r>    11.1079     0.0000   560.0000 </r>
       <r>    11.2892     0.0000   560.0000 </r>
       <r>    11.4705     0.0000   560.0000 </r>
       <r>    11.6519     0.0000   560.0000 </r>
       <r>    11.8332     0.0000   560.0000 </r>
       <r>    12.0145     0.0000   560.0000 </r>
      </set>
     </set>
    </array>
   </total>
  </dos>
 </calculation>
 <structure name="finalpos" >
  <crystal>
   <varray name="basis" >
    <v>      11.21085760      -0.01150132       0.01716496 </v>
    <v>      -0.00860280       9.53212930       0.02583641 </v>
    <v>       0.01727082       0.03216513      11.19495438 </v>
   </varray>
   <i name="volume">   1196.31700345 </i>
   <varray name="rec_basis" >
    <v>       0.08919954       0.00008088      -0.00013784 </v>
    <v>       0.00010809       0.10490927      -0.00030159 </v>
    <v>      -0.00013702      -0.00024224       0.08932686 </v>
   </varray>
  </crystal>
  <varray name="positions" >
   <v>       0.37488797       0.00196764       0.44533044 </v>
   <v>       0.15972748       0.96460476       0.24727995 </v>
   <v>       0.38423407       0.00248318       0.18638488 </v>
   <v>       0.62972323       0.99544423       0.42916283 </v>
   <v>       0.90313535      -0.03233962       0.53673054 </v>
   <v>       0.61726405       0.00360735       0.18940412 </v>
   <v>       0.23265194       0.02643655       0.95962069 </v>
   <v>       0.10632155       0.01692393       0.71094739 </v>
   <v>       0.37026940      -0.00386813       0.69923132 </v>
   <v>       0.59953763       0.00636767       0.93509062 </v>
   <v>       0.87466110      -0.00140087       0.18263093 </v>
   <v>       0.86809131       0.00221447       0.91827278 </v>
   <v>       0.63722624       0.00352095       0.68214124 </v>
   <v>      -0.00241201       0.31507805       0.05675631 </v>
   <v>       0.25312123       0.70120888       0.06687934 </v>
   <v>       0.25635766       0.29284396       0.30968688 </v>
   <v>       0.50165254       0.69964205       0.30972893 </v>
   <v>       0.49948053       0.30070345       0.06106994 </v>
   <v>       0.75258545       0.68442916       0.05757353 </v>
   <v>       0.75243259       0.29976638       0.30439187 </v>
   <v>       0.00079424       0.68720036       0.30541289 </v>
   <v>       0.00847357       0.30299696       0.56009625 </v>
   <v>       0.25526293       0.70491386       0.56214120 </v>
   <v>       0.25204659       0.30565579       0.80392838 </v>
   <v>       0.50095240       0.69768188       0.80711926 </v>
   <v>       0.50604515       0.30931125       0.55749877 </v>
   <v>       0.75012554       0.68846425       0.55766585 </v>
   <v>       0.75023099       0.31414846       0.80761263 </v>
   <v>       0.00380463       0.69875598       0.80873590 </v>
   <v>       0.24679772       0.29474151       0.05491040 </v>
   <v>       0.00041076       0.64469768       0.05542538 </v>
   <v>       0.50106206       0.35379486       0.30655244 </v>
   <v>       0.24949697       0.65268859       0.30862555 </v>
   <v>       0.74577578       0.36185166       0.05851660 </v>
   <v>       0.50156174       0.66784790       0.05766452 </v>
   <v>       0.99785108       0.31556308       0.30563488 </v>
   <v>       0.75024743       0.65385034       0.30617014 </v>
   <v>       0.25423732       0.34816760       0.55648619 </v>
   <v>      -0.00232490       0.71498604       0.55440692 </v>
   <v>       0.50203771       0.34559340       0.80680627 </v>
   <v>       0.25153868       0.66760885       0.81048655 </v>
   <v>       0.75238191       0.33907382       0.55957739 </v>
   <v>       0.50355803       0.64304939       0.55858376 </v>
   <v>      -0.00093988       0.35057078       0.80844620 </v>
   <v>       0.75024836       0.65312010       0.80670048 </v>
   <v>       0.51636664       0.08608143       0.07236755 </v>
   <v>       0.25155701       0.91321641       0.09439476 </v>
   <v>       0.28158115       0.08108559       0.31366604 </v>
   <v>      -0.00130341       0.90072707       0.27454614 </v>
   <v>       0.95119449       0.10289800       0.04890677 </v>
   <v>       0.76692662       0.90913268       0.05302316 </v>
   <v>       0.74483079       0.08125210       0.28631950 </v>
   <v>       0.50871292       0.91719521       0.31325519 </v>
   <v>       0.52195470       0.08865633       0.56219758 </v>
   <v>       0.28784401       0.91254650       0.57042437 </v>
   <v>       0.24743215       0.08948277       0.79884616 </v>
   <v>      -0.00622936       0.91336897       0.82296852 </v>
   <v>       0.01212248       0.09520150       0.58502419 </v>
   <v>       0.73583982       0.90946136       0.55805290 </v>
   <v>       0.73440299       0.08842952       0.81950761 </v>
   <v>       0.51875087       0.91552613       0.79245021 </v>
  </varray>
 </structure>
</modeling>
