<?xml version="1.0" encoding="ISO-8859-1"?>
<modeling>
 <generator>
  <i name="program" type="string">vasp </i>
  <i name="version" type="string">5.4.4.18Apr17-6-g9f103f2a35  </i>
  <i name="subversion" type="string">(build Jul 31 2017 11:33:29) complex            parallel </i>
  <i name="platform" type="string">LinuxIFC </i>
  <i name="date" type="string">2021 09 20 </i>
  <i name="time" type="string">19:41:23 </i>
 </generator>
 <incar>
  <i type="string" name="SYSTEM"> La2O2S</i>
  <i type="string" name="PREC">normal</i>
  <i type="int" name="NELMIN">     4</i>
  <i type="int" name="IBRION">     2</i>
  <i type="int" name="NFREE">    10</i>
  <i name="EDIFF">      0.00000100</i>
  <i name="EDIFFG">     -0.01000000</i>
  <i type="int" name="NSW">   200</i>
  <i type="int" name="ISIF">     3</i>
  <i name="ENCUT">    600.00000000</i>
  <i name="ENAUG">    900.00000000</i>
  <i type="int" name="ISMEAR">    -5</i>
  <i type="logical" name="LWAVE"> F  </i>
  <i type="logical" name="LCHARG"> F  </i>
  <v type="int" name="KPOINT_BSE">    -1     0     0     0</v>
 </incar>
 <structure name="primitive_cell" >
  <crystal>
   <varray name="basis" >
    <v>      11.17850000       0.00000000       0.00000000 </v>
    <v>       0.00000000       9.57460000       0.00000000 </v>
    <v>       0.00000000       0.00000000      11.18240000 </v>
   </varray>
   <i name="volume">   1196.84853820 </i>
   <varray name="rec_basis" >
    <v>       0.08945744       0.00000000       0.00000000 </v>
    <v>       0.00000000       0.10444301       0.00000000 </v>
    <v>       0.00000000       0.00000000       0.08942624 </v>
   </varray>
  </crystal>
  <varray name="positions" >
   <v>       0.12461000      -0.00016000       0.18687000 </v>
   <v>      -0.00013000       0.07798000       0.06246000 </v>
   <v>       0.24987000      -0.07798000       0.06246000 </v>
   <v>       0.00013000      -0.07798000       0.31246000 </v>
   <v>       0.25013000       0.07798000       0.31246000 </v>
   <v>      -0.12539000       0.00017000       0.18687000 </v>
   <v>       0.12539000      -0.00016000      -0.06313000 </v>
   <v>       0.00013000       0.29519000       0.06281000 </v>
   <v>       0.25013000      -0.29519000       0.06281000 </v>
   <v>      -0.00013000      -0.29519000       0.31282000 </v>
   <v>       0.24987000       0.29519000       0.31282000 </v>
   <v>       0.00005000      -0.32677000       0.06286000 </v>
   <v>       0.25005000       0.32677000       0.06286000 </v>
   <v>      -0.00005000       0.32677000       0.31286000 </v>
   <v>       0.24995000      -0.32677000       0.31286000 </v>
   <v>      -0.12461000       0.00017000       0.43687000 </v>
   <v>      -0.12461000       0.00017000      -0.06313000 </v>
   <v>       0.00013000      -0.07798000      -0.18754000 </v>
   <v>      -0.25013000      -0.07798000       0.06246000 </v>
   <v>      -0.24987000       0.07798000       0.31246000 </v>
   <v>       0.25013000       0.07798000      -0.18754000 </v>
   <v>       0.49987000       0.07798000       0.06246000 </v>
   <v>      -0.00013000       0.07798000      -0.43754000 </v>
   <v>      -0.49987000      -0.07798000       0.31246000 </v>
   <v>       0.24987000      -0.07798000      -0.43754000 </v>
   <v>      -0.00013000      -0.29519000      -0.18718000 </v>
   <v>      -0.24987000      -0.29519000       0.06281000 </v>
   <v>       0.24987000       0.29519000      -0.18718000 </v>
   <v>      -0.25013000       0.29519000       0.31282000 </v>
   <v>      -0.49987000       0.29519000       0.06281000 </v>
   <v>       0.49987000      -0.29519000       0.31282000 </v>
   <v>       0.00013000       0.29519000      -0.43719000 </v>
   <v>       0.25013000      -0.29519000      -0.43719000 </v>
   <v>      -0.00005000       0.32677000      -0.18714000 </v>
   <v>       0.24995000      -0.32677000      -0.18714000 </v>
   <v>      -0.24995000       0.32677000       0.06286000 </v>
   <v>      -0.25005000      -0.32677000       0.31286000 </v>
   <v>      -0.49995000      -0.32677000       0.06286000 </v>
   <v>       0.49995000       0.32677000       0.31286000 </v>
   <v>       0.00005000      -0.32677000      -0.43714000 </v>
   <v>       0.25005000       0.32677000      -0.43714000 </v>
   <v>      -0.37539000      -0.00016000       0.18687000 </v>
   <v>       0.12461000      -0.00016000      -0.31313000 </v>
   <v>      -0.24987000       0.07798000      -0.18754000 </v>
   <v>      -0.49987000      -0.07798000      -0.18754000 </v>
   <v>      -0.25013000      -0.07798000      -0.43754000 </v>
   <v>       0.49987000       0.07798000      -0.43754000 </v>
   <v>      -0.37461000      -0.00016000       0.43687000 </v>
   <v>      -0.37461000      -0.00016000      -0.06313000 </v>
   <v>       0.37461000       0.00017000      -0.31313000 </v>
   <v>      -0.25013000       0.29519000      -0.18718000 </v>
   <v>       0.49987000      -0.29519000      -0.18718000 </v>
   <v>      -0.24987000      -0.29519000      -0.43719000 </v>
   <v>      -0.49987000       0.29519000      -0.43719000 </v>
   <v>      -0.25005000      -0.32677000      -0.18714000 </v>
   <v>       0.49995000       0.32677000      -0.18714000 </v>
   <v>      -0.24995000       0.32677000      -0.43714000 </v>
   <v>      -0.49995000      -0.32677000      -0.43714000 </v>
  </varray>
 </structure>
 <varray name="primitive_index" >
  <v type="int" >        1 </v>
  <v type="int" >       47 </v>
  <v type="int" >       44 </v>
  <v type="int" >       46 </v>
  <v type="int" >       45 </v>
  <v type="int" >        7 </v>
  <v type="int" >        8 </v>
  <v type="int" >       11 </v>
  <v type="int" >       12 </v>
  <v type="int" >       18 </v>
  <v type="int" >       13 </v>
  <v type="int" >       28 </v>
  <v type="int" >       27 </v>
  <v type="int" >       33 </v>
  <v type="int" >       30 </v>
  <v type="int" >        2 </v>
  <v type="int" >       10 </v>
  <v type="int" >       54 </v>
  <v type="int" >       48 </v>
  <v type="int" >       49 </v>
  <v type="int" >       53 </v>
  <v type="int" >       43 </v>
  <v type="int" >       55 </v>
  <v type="int" >       50 </v>
  <v type="int" >       52 </v>
  <v type="int" >       26 </v>
  <v type="int" >       16 </v>
  <v type="int" >       21 </v>
  <v type="int" >       17 </v>
  <v type="int" >       15 </v>
  <v type="int" >       14 </v>
  <v type="int" >       19 </v>
  <v type="int" >       20 </v>
  <v type="int" >       41 </v>
  <v type="int" >       38 </v>
  <v type="int" >       31 </v>
  <v type="int" >       34 </v>
  <v type="int" >       32 </v>
  <v type="int" >       29 </v>
  <v type="int" >       36 </v>
  <v type="int" >       35 </v>
  <v type="int" >        6 </v>
  <v type="int" >        3 </v>
  <v type="int" >       57 </v>
  <v type="int" >       58 </v>
  <v type="int" >       56 </v>
  <v type="int" >       51 </v>
  <v type="int" >        5 </v>
  <v type="int" >        9 </v>
  <v type="int" >        4 </v>
  <v type="int" >       25 </v>
  <v type="int" >       22 </v>
  <v type="int" >       24 </v>
  <v type="int" >       23 </v>
  <v type="int" >       42 </v>
  <v type="int" >       37 </v>
  <v type="int" >       39 </v>
  <v type="int" >       40 </v>
 </varray>
 <kpoints>
  <generation param="Gamma">
   <v type="int" name="divisions">       2        2        2 </v>
   <v name="usershift">      0.00000000       0.00000000       0.00000000 </v>
   <v name="genvec1">      0.50000000       0.00000000       0.00000000 </v>
   <v name="genvec2">      0.00000000       0.50000000       0.00000000 </v>
   <v name="genvec3">      0.00000000       0.00000000       0.50000000 </v>
   <v name="shift">      0.00000000       0.00000000       0.00000000 </v>
  </generation>
  <varray name="kpointlist" >
   <v>       0.00000000       0.00000000       0.00000000 </v>
   <v>       0.50000000       0.00000000       0.00000000 </v>
   <v>       0.00000000       0.50000000       0.00000000 </v>
   <v>       0.50000000       0.50000000       0.00000000 </v>
   <v>       0.00000000       0.00000000       0.50000000 </v>
   <v>       0.50000000       0.00000000       0.50000000 </v>
   <v>       0.00000000       0.50000000       0.50000000 </v>
   <v>       0.50000000       0.50000000       0.50000000 </v>
  </varray>
  <varray name="weights" >
   <v>       0.12500000 </v>
   <v>       0.12500000 </v>
   <v>       0.12500000 </v>
   <v>       0.12500000 </v>
   <v>       0.12500000 </v>
   <v>       0.12500000 </v>
   <v>       0.12500000 </v>
   <v>       0.12500000 </v>
  </varray>
  <varray name="tetrahedronlist"  type="int" >
   <v type="int" >        2        1        2        4        5 </v>
   <v type="int" >        2        1        3        4        5 </v>
   <v type="int" >        2        3        4        5        7 </v>
   <v type="int" >        2        2        4        5        6 </v>
   <v type="int" >        2        4        5        6        8 </v>
   <v type="int" >        2        4        5        7        8 </v>
   <v type="int" >        2        1        2        3        6 </v>
   <v type="int" >        2        2        3        4        6 </v>
   <v type="int" >        2        3        4        6        8 </v>
   <v type="int" >        2        1        3        5        6 </v>
   <v type="int" >        2        3        5        6        7 </v>
   <v type="int" >        2        3        6        7        8 </v>
   <v type="int" >        2        2        3        4        7 </v>
   <v type="int" >        2        1        2        3        7 </v>
   <v type="int" >        2        1        2        5        7 </v>
   <v type="int" >        2        2        4        7        8 </v>
   <v type="int" >        2        2        6        7        8 </v>
   <v type="int" >        2        2        5        6        7 </v>
   <v type="int" >        2        1        3        4        8 </v>
   <v type="int" >        2        1        2        4        8 </v>
   <v type="int" >        2        1        2        6        8 </v>
   <v type="int" >        2        1        3        7        8 </v>
   <v type="int" >        2        1        5        7        8 </v>
   <v type="int" >        2        1        5        6        8 </v>
  </varray>
  <i name="volumeweight">      0.02083333 </i>
 </kpoints>
 <parameters>
  <separator name="general" >
   <i type="string" name="SYSTEM">La2O2S</i>
   <i type="logical" name="LCOMPAT"> F  </i>
  </separator>
  <separator name="electronic" >
   <i type="string" name="PREC">normal</i>
   <i name="ENMAX">    600.00000000</i>
   <i name="ENAUG">    900.00000000</i>
   <i name="EDIFF">      0.00000100</i>
   <i type="int" name="IALGO">    38</i>
   <i type="int" name="IWAVPR">    11</i>
   <i type="int" name="NBANDS">   280</i>
   <i name="NELECT">    456.00000000</i>
   <i type="int" name="TURBO">     0</i>
   <i type="int" name="IRESTART">     0</i>
   <i type="int" name="NREBOOT">     0</i>
   <i type="int" name="NMIN">     0</i>
   <i name="EREF">      0.00000000</i>
   <separator name="electronic smearing" >
    <i type="int" name="ISMEAR">    -5</i>
    <i name="SIGMA">      0.20000000</i>
    <i name="KSPACING">      0.50000000</i>
    <i type="logical" name="KGAMMA"> T  </i>
   </separator>
   <separator name="electronic projectors" >
    <i type="logical" name="LREAL"> F  </i>
    <v name="ROPT">      0.00000000      0.00000000      0.00000000      0.00000000      0.00000000</v>
    <i type="int" name="LMAXPAW">  -100</i>
    <i type="int" name="LMAXMIX">     2</i>
    <i type="logical" name="NLSPLINE"> F  </i>
   </separator>
   <separator name="electronic startup" >
    <i type="int" name="ISTART">     0</i>
    <i type="int" name="ICHARG">     2</i>
    <i type="int" name="INIWAV">     1</i>
   </separator>
   <separator name="electronic spin" >
    <i type="int" name="ISPIN">     1</i>
    <i type="logical" name="LNONCOLLINEAR"> F  </i>
    <v name="MAGMOM">      1.00000000      1.00000000      1.00000000      1.00000000      1.00000000      1.00000000      1.00000000      1.00000000      1.00000000      1.00000000      1.00000000      1.00000000      1.00000000      1.00000000      1.00000000      1.00000000      1.00000000      1.00000000      1.00000000      1.00000000
      1.00000000      1.00000000      1.00000000      1.00000000      1.00000000      1.00000000      1.00000000      1.00000000      1.00000000      1.00000000      1.00000000      1.00000000      1.00000000      1.00000000      1.00000000      1.00000000      1.00000000      1.00000000      1.00000000      1.00000000
      1.00000000      1.00000000      1.00000000      1.00000000      1.00000000      1.00000000      1.00000000      1.00000000      1.00000000      1.00000000      1.00000000      1.00000000      1.00000000      1.00000000      1.00000000      1.00000000      1.00000000      1.00000000</v>
    <i name="NUPDOWN">     -1.00000000</i>
    <i type="logical" name="LSORBIT"> F  </i>
    <v name="SAXIS">      0.00000000      0.00000000      1.00000000</v>
    <i type="logical" name="LSPIRAL"> F  </i>
    <v name="QSPIRAL">      0.00000000      0.00000000      0.00000000</v>
    <i type="logical" name="LZEROZ"> F  </i>
   </separator>
   <separator name="electronic exchange-correlation" >
    <i type="logical" name="LASPH"> F  </i>
    <i type="logical" name="LMETAGGA"> F  </i>
   </separator>
   <separator name="electronic convergence" >
    <i type="int" name="NELM">    60</i>
    <i type="int" name="NELMDL">    -5</i>
    <i type="int" name="NELMIN">     4</i>
    <i name="ENINI">    600.00000000</i>
    <separator name="electronic convergence detail" >
     <i type="logical" name="LDIAG"> T  </i>
     <i type="logical" name="LSUBROT"> F  </i>
     <i name="WEIMIN">      0.00100000</i>
     <i name="EBREAK">      0.00000000</i>
     <i name="DEPER">      0.30000000</i>
     <i type="int" name="NRMM">     4</i>
     <i name="TIME">      0.40000000</i>
    </separator>
   </separator>
   <separator name="electronic mixer" >
    <i name="AMIX">      0.40000000</i>
    <i name="BMIX">      1.00000000</i>
    <i name="AMIN">      0.10000000</i>
    <i name="AMIX_MAG">      1.60000000</i>
    <i name="BMIX_MAG">      1.00000000</i>
    <separator name="electronic mixer details" >
     <i type="int" name="IMIX">     4</i>
     <i type="logical" name="MIXFIRST"> F  </i>
     <i type="int" name="MAXMIX">   -45</i>
     <i name="WC">    100.00000000</i>
     <i type="int" name="INIMIX">     1</i>
     <i type="int" name="MIXPRE">     1</i>
     <i type="int" name="MREMOVE">     5</i>
    </separator>
   </separator>
   <separator name="electronic dipolcorrection" >
    <i type="logical" name="LDIPOL"> F  </i>
    <i type="logical" name="LMONO"> F  </i>
    <i type="int" name="IDIPOL">     0</i>
    <i name="EPSILON">      1.00000000</i>
    <v name="DIPOL">   -100.00000000   -100.00000000   -100.00000000</v>
    <i name="EFIELD">      0.00000000</i>
   </separator>
  </separator>
  <separator name="grids" >
   <i type="int" name="NGX">    70</i>
   <i type="int" name="NGY">    60</i>
   <i type="int" name="NGZ">    70</i>
   <i type="int" name="NGXF">   140</i>
   <i type="int" name="NGYF">   120</i>
   <i type="int" name="NGZF">   140</i>
   <i type="logical" name="ADDGRID"> F  </i>
  </separator>
  <separator name="ionic" >
   <i type="int" name="NSW">   200</i>
   <i type="int" name="IBRION">     2</i>
   <i type="int" name="MDALGO">     0</i>
   <i type="int" name="ISIF">     3</i>
   <i name="PSTRESS">      0.00000000</i>
   <i name="EDIFFG">     -0.01000000</i>
   <i type="int" name="NFREE">    10</i>
   <i name="POTIM">      0.50000000</i>
   <i name="SMASS">     -3.00000000</i>
   <i name="SCALEE">      1.00000000</i>
  </separator>
  <separator name="ionic md" >
   <i name="TEBEG">      0.00010000</i>
   <i name="TEEND">      0.00010000</i>
   <i type="int" name="NBLOCK">     1</i>
   <i type="int" name="KBLOCK">   200</i>
   <i type="int" name="NPACO">   256</i>
   <i name="APACO">     16.00000000</i>
  </separator>
  <separator name="symmetry" >
   <i type="int" name="ISYM">     2</i>
   <i name="SYMPREC">      0.00001000</i>
  </separator>
  <separator name="dos" >
   <i type="int" name="LORBIT">     0</i>
   <v name="RWIGS">     -1.00000000     -1.00000000     -1.00000000     -1.00000000     -1.00000000</v>
   <i type="int" name="NEDOS">   301</i>
   <i name="EMIN">     10.00000000</i>
   <i name="EMAX">    -10.00000000</i>
   <i name="EFERMI">      0.00000000</i>
  </separator>
  <separator name="writing" >
   <i type="int" name="NWRITE">     2</i>
   <i type="logical" name="LWAVE"> F  </i>
   <i type="logical" name="LDOWNSAMPLE"> F  </i>
   <i type="logical" name="LCHARG"> F  </i>
   <i type="logical" name="LPARD"> F  </i>
   <i type="logical" name="LVTOT"> F  </i>
   <i type="logical" name="LVHAR"> F  </i>
   <i type="logical" name="LELF"> F  </i>
   <i type="logical" name="LOPTICS"> F  </i>
   <v name="STM">      0.00000000      0.00000000      0.00000000      0.00000000      0.00000000      0.00000000      0.00000000</v>
  </separator>
  <separator name="performance" >
   <i type="int" name="NPAR">    28</i>
   <i type="int" name="NSIM">     4</i>
   <i type="int" name="NBLK">    -1</i>
   <i type="logical" name="LPLANE"> T  </i>
   <i type="logical" name="LSCALAPACK"> T  </i>
   <i type="logical" name="LSCAAWARE"> F  </i>
   <i type="logical" name="LSCALU"> F  </i>
   <i type="logical" name="LASYNC"> F  </i>
   <i type="logical" name="LORBITALREAL"> F  </i>
  </separator>
  <separator name="miscellaneous" >
   <i type="int" name="IDIOT">     3</i>
   <i type="int" name="ISPECIAL">     0</i>
   <i type="logical" name="LMUSIC"> F  </i>
   <v name="POMASS">      7.01000000     24.30500000    208.98000000     32.06600000     16.00000000</v>
   <v name="DARWINR">      0.00000000      0.00000000      0.00000000      0.00000000      0.00000000</v>
   <v name="DARWINV">      1.00000000      1.00000000      1.00000000      1.00000000      1.00000000</v>
   <i type="logical" name="LCORR"> T  </i>
  </separator>
  <i type="logical" name="GGA_COMPAT"> T  </i>
  <i type="logical" name="LBERRY"> F  </i>
  <i type="int" name="ICORELEVEL">     0</i>
  <i type="logical" name="LDAU"> F  </i>
  <i type="int" name="I_CONSTRAINED_M">     0</i>
  <separator name="electronic exchange-correlation" >
   <i type="string" name="GGA">--</i>
   <i type="int" name="VOSKOWN">     0</i>
   <i type="logical" name="LHFCALC"> F  </i>
   <i type="string" name="PRECFOCK"></i>
   <i type="logical" name="LSYMGRAD"> F  </i>
   <i type="logical" name="LHFONE"> F  </i>
   <i type="logical" name="LRHFCALC"> F  </i>
   <i type="logical" name="LTHOMAS"> F  </i>
   <i type="logical" name="LMODELHF"> F  </i>
   <i name="ENCUT4O">     -1.00000000</i>
   <i type="int" name="EXXOEP">     0</i>
   <i type="int" name="FOURORBIT">     0</i>
   <i name="AEXX">      0.00000000</i>
   <i name="HFALPHA">      0.00000000</i>
   <i name="MCALPHA">      0.00000000</i>
   <i name="ALDAX">      1.00000000</i>
   <i name="AGGAX">      1.00000000</i>
   <i name="ALDAC">      1.00000000</i>
   <i name="AGGAC">      1.00000000</i>
   <i type="int" name="NKREDX">     1</i>
   <i type="int" name="NKREDY">     1</i>
   <i type="int" name="NKREDZ">     1</i>
   <i type="logical" name="SHIFTRED"> F  </i>
   <i type="logical" name="ODDONLY"> F  </i>
   <i type="logical" name="EVENONLY"> F  </i>
   <i type="int" name="LMAXFOCK">     0</i>
   <i type="int" name="NMAXFOCKAE">     0</i>
   <i type="logical" name="LFOCKAEDFT"> F  </i>
   <i name="HFSCREEN">      0.00000000</i>
   <i name="HFSCREENC">      0.00000000</i>
   <i type="int" name="NBANDSGWLOW">     0</i>
  </separator>
  <separator name="vdW DFT" >
   <i type="logical" name="LUSE_VDW"> F  </i>
   <i name="Zab_VDW">     -0.84910000</i>
   <i name="PARAM1">      0.12340000</i>
   <i name="PARAM2">      1.00000000</i>
   <i name="PARAM3">      0.00000000</i>
  </separator>
  <separator name="model GW" >
   <i type="int" name="MODEL_GW">     0</i>
   <i name="MODEL_EPS0">     12.38119177</i>
   <i name="MODEL_ALPHA">      1.00000000</i>
  </separator>
  <separator name="linear response parameters" >
   <i type="logical" name="LEPSILON"> F  </i>
   <i type="logical" name="LRPA"> F  </i>
   <i type="logical" name="LNABLA"> F  </i>
   <i type="logical" name="LVEL"> F  </i>
   <i type="int" name="KINTER">     0</i>
   <i name="CSHIFT">      0.10000000</i>
   <i name="OMEGAMAX">     -1.00000000</i>
   <i name="DEG_THRESHOLD">      0.00200000</i>
   <i name="RTIME">     -0.10000000</i>
   <i name="WPLASMAI">      0.00000000</i>
   <v name="DFIELD">      0.00000000      0.00000000      0.00000000</v>
   <v name="WPLASMA">      0.00000000      0.00000000      0.00000000      0.00000000      0.00000000      0.00000000      0.00000000      0.00000000      0.00000000</v>
  </separator>
  <separator name="orbital magnetization" >
   <i type="logical" name="NUCIND"> F  </i>
   <v name="MAGPOS">      0.00000000      0.00000000      0.00000000</v>
   <i type="logical" name="LNICSALL"> T  </i>
   <i type="logical" name="ORBITALMAG"> F  </i>
   <i type="logical" name="LMAGBLOCH"> F  </i>
   <i type="logical" name="LCHIMAG"> F  </i>
   <i type="logical" name="LGAUGE"> T  </i>
   <i type="int" name="MAGATOM">     0</i>
   <v name="MAGDIPOL">      0.00000000      0.00000000      0.00000000</v>
   <v name="AVECCONST">      0.00000000      0.00000000      0.00000000</v>
  </separator>
  <separator name="response functions" >
   <i type="logical" name="LADDER"> F  </i>
   <i type="logical" name="LRPAFORCE"> F  </i>
   <i type="logical" name="LFXC"> F  </i>
   <i type="logical" name="LHARTREE"> T  </i>
   <i type="int" name="IBSE">     0</i>
   <v type="int" name="KPOINT">    -1     0     0     0</v>
   <i type="logical" name="LTCTE"> F  </i>
   <i type="logical" name="LTETE"> F  </i>
   <i type="logical" name="LTRIPLET"> F  </i>
   <i type="logical" name="LFXCEPS"> F  </i>
   <i type="logical" name="LFXHEG"> F  </i>
   <i type="int" name="NATURALO">     2</i>
   <i type="logical" name="L2ORDER"> F  </i>
   <i type="logical" name="LMP2LT"> F  </i>
   <i type="logical" name="LUSEW"> F  </i>
   <i name="ENCUTGW">     -2.00000000</i>
   <i name="ENCUTGWSOFT">     -2.00000000</i>
   <i name="ENCUTLF">     -1.00000000</i>
   <i type="int" name="LMAXMP2">    -1</i>
   <i name="SCISSOR">      0.00000000</i>
   <i type="int" name="NOMEGA">     0</i>
   <i type="int" name="NOMEGAR">     0</i>
   <i type="int" name="NBANDSGW">    -1</i>
   <i type="int" name="NBANDSO">    -1</i>
   <i type="int" name="NBANDSV">    -1</i>
   <i type="int" name="NELM">     1</i>
   <i type="int" name="NELMHF">     1</i>
   <i type="int" name="DIM">     3</i>
   <i type="int" name="ANTIRES">     0</i>
   <i name="OMEGAMAX">    -30.00000000</i>
   <i name="OMEGAMIN">    -30.00000000</i>
   <i name="OMEGATL">   -200.00000000</i>
   <i type="int" name="OMEGAGRID">   140</i>
   <i name="CSHIFT">     -0.10000000</i>
   <i type="logical" name="SELFENERGY"> F  </i>
   <i type="logical" name="LSPECTRAL"> F  </i>
   <i type="logical" name="LSPECTRALGW"> F  </i>
   <i type="logical" name="LSINGLES"> F  </i>
   <i type="logical" name="LFERMIGW"> F  </i>
   <i type="logical" name="ODDONLYGW"> F  </i>
   <i type="logical" name="EVENONLYGW"> F  </i>
   <i type="int" name="NKREDLFX">     1</i>
   <i type="int" name="NKREDLFY">     1</i>
   <i type="int" name="NKREDLFZ">     1</i>
   <i type="int" name="MAXMEM">  2800</i>
   <i type="int" name="TELESCOPE">     0</i>
   <i type="int" name="TAUPAR">     1</i>
   <i type="int" name="OMEGAPAR">    -1</i>
   <i name="LAMBDA">      1.00000000</i>
  </separator>
  <separator name="External order field" >
   <i name="OFIELD_KAPPA">      0.00000000</i>
   <v name="OFIELD_K">      0.00000000      0.00000000      0.00000000</v>
   <i name="OFIELD_Q6_NEAR">      0.00000000</i>
   <i name="OFIELD_Q6_FAR">      0.00000000</i>
   <i name="OFIELD_A">      0.00000000</i>
  </separator>
 </parameters>
 <atominfo>
  <atoms>      58 </atoms>
  <types>       5 </types>
  <array name="atoms" >
   <dimension dim="1">ion</dimension>
   <field type="string">element</field>
   <field type="int">atomtype</field>
   <set>
    <rc><c>Li</c><c>   1</c></rc>
    <rc><c>Li</c><c>   1</c></rc>
    <rc><c>Li</c><c>   1</c></rc>
    <rc><c>Li</c><c>   1</c></rc>
    <rc><c>Mg</c><c>   2</c></rc>
    <rc><c>Mg</c><c>   2</c></rc>
    <rc><c>Mg</c><c>   2</c></rc>
    <rc><c>Mg</c><c>   2</c></rc>
    <rc><c>Mg</c><c>   2</c></rc>
    <rc><c>Mg</c><c>   2</c></rc>
    <rc><c>Bi</c><c>   3</c></rc>
    <rc><c>Bi</c><c>   3</c></rc>
    <rc><c>Bi</c><c>   3</c></rc>
    <rc><c>Bi</c><c>   3</c></rc>
    <rc><c>Bi</c><c>   3</c></rc>
    <rc><c>Bi</c><c>   3</c></rc>
    <rc><c>Bi</c><c>   3</c></rc>
    <rc><c>Bi</c><c>   3</c></rc>
    <rc><c>Bi</c><c>   3</c></rc>
    <rc><c>Bi</c><c>   3</c></rc>
    <rc><c>Bi</c><c>   3</c></rc>
    <rc><c>Bi</c><c>   3</c></rc>
    <rc><c>Bi</c><c>   3</c></rc>
    <rc><c>Bi</c><c>   3</c></rc>
    <rc><c>Bi</c><c>   3</c></rc>
    <rc><c>Bi</c><c>   3</c></rc>
    <rc><c>S </c><c>   4</c></rc>
    <rc><c>S </c><c>   4</c></rc>
    <rc><c>S </c><c>   4</c></rc>
    <rc><c>S </c><c>   4</c></rc>
    <rc><c>S </c><c>   4</c></rc>
    <rc><c>S </c><c>   4</c></rc>
    <rc><c>S </c><c>   4</c></rc>
    <rc><c>S </c><c>   4</c></rc>
    <rc><c>S </c><c>   4</c></rc>
    <rc><c>S </c><c>   4</c></rc>
    <rc><c>S </c><c>   4</c></rc>
    <rc><c>S </c><c>   4</c></rc>
    <rc><c>S </c><c>   4</c></rc>
    <rc><c>S </c><c>   4</c></rc>
    <rc><c>S </c><c>   4</c></rc>
    <rc><c>S </c><c>   4</c></rc>
    <rc><c>O </c><c>   5</c></rc>
    <rc><c>O </c><c>   5</c></rc>
    <rc><c>O </c><c>   5</c></rc>
    <rc><c>O </c><c>   5</c></rc>
    <rc><c>O </c><c>   5</c></rc>
    <rc><c>O </c><c>   5</c></rc>
    <rc><c>O </c><c>   5</c></rc>
    <rc><c>O </c><c>   5</c></rc>
    <rc><c>O </c><c>   5</c></rc>
    <rc><c>O </c><c>   5</c></rc>
    <rc><c>O </c><c>   5</c></rc>
    <rc><c>O </c><c>   5</c></rc>
    <rc><c>O </c><c>   5</c></rc>
    <rc><c>O </c><c>   5</c></rc>
    <rc><c>O </c><c>   5</c></rc>
    <rc><c>O </c><c>   5</c></rc>
   </set>
  </array>
  <array name="atomtypes" >
   <dimension dim="1">type</dimension>
   <field type="int">atomspertype</field>
   <field type="string">element</field>
   <field>mass</field>
   <field>valence</field>
   <field type="string">pseudopotential</field>
   <set>
    <rc><c>   4</c><c>Li</c><c>      7.01000000</c><c>      3.00000000</c><c>  PAW_PBE Li_sv 10Sep2004               </c></rc>
    <rc><c>   6</c><c>Mg</c><c>     24.30500000</c><c>      2.00000000</c><c>  PAW_PBE Mg 13Apr2007                  </c></rc>
    <rc><c>  16</c><c>Bi</c><c>    208.98000000</c><c>     15.00000000</c><c>  PAW_PBE Bi_d 06Sep2000                </c></rc>
    <rc><c>  16</c><c>S </c><c>     32.06600000</c><c>      6.00000000</c><c>  PAW_PBE S 06Sep2000                   </c></rc>
    <rc><c>  16</c><c>O </c><c>     16.00000000</c><c>      6.00000000</c><c>  PAW_PBE O 08Apr2002                   </c></rc>
   </set>
  </array>
 </atominfo>
 <structure name="initialpos" >
  <crystal>
   <varray name="basis" >
    <v>      11.17850000       0.00000000       0.00000000 </v>
    <v>       0.00000000       9.57460000       0.00000000 </v>
    <v>       0.00000000       0.00000000      11.18240000 </v>
   </varray>
   <i name="volume">   1196.84853820 </i>
   <varray name="rec_basis" >
    <v>       0.08945744       0.00000000       0.00000000 </v>
    <v>       0.00000000       0.10444301       0.00000000 </v>
    <v>       0.00000000       0.00000000       0.08942624 </v>
   </varray>
  </crystal>
  <varray name="positions" >
   <v>       0.12461000       0.99984000       0.18687000 </v>
   <v>       0.87539000       0.00017000       0.43687000 </v>
   <v>       0.12461000       0.99984000       0.68687000 </v>
   <v>       0.37461000       0.00017000       0.68687000 </v>
   <v>       0.62539000       0.99984000       0.43687000 </v>
   <v>       0.62461000       0.99984000       0.18687000 </v>
   <v>       0.87461000       0.00017000       0.18687000 </v>
   <v>       0.12539000       0.99984000       0.93687000 </v>
   <v>       0.62539000       0.99984000       0.93687000 </v>
   <v>       0.87539000       0.00017000       0.93687000 </v>
   <v>       0.00013000       0.29519000       0.06281000 </v>
   <v>       0.25013000       0.70481000       0.06281000 </v>
   <v>       0.24987000       0.29519000       0.31282000 </v>
   <v>       0.49987000       0.70481000       0.31282000 </v>
   <v>       0.50013000       0.29519000       0.06281000 </v>
   <v>       0.75013000       0.70481000       0.06281000 </v>
   <v>       0.74987000       0.29519000       0.31282000 </v>
   <v>       0.99987000       0.70481000       0.31282000 </v>
   <v>       0.00013000       0.29519000       0.56281000 </v>
   <v>       0.25013000       0.70481000       0.56281000 </v>
   <v>       0.24987000       0.29519000       0.81282000 </v>
   <v>       0.49987000       0.70481000       0.81282000 </v>
   <v>       0.50013000       0.29519000       0.56281000 </v>
   <v>       0.75013000       0.70481000       0.56281000 </v>
   <v>       0.74987000       0.29519000       0.81282000 </v>
   <v>       0.99987000       0.70481000       0.81282000 </v>
   <v>       0.25005000       0.32677000       0.06286000 </v>
   <v>       0.00005000       0.67323000       0.06286000 </v>
   <v>       0.49995000       0.32677000       0.31286000 </v>
   <v>       0.24995000       0.67323000       0.31286000 </v>
   <v>       0.75005000       0.32677000       0.06286000 </v>
   <v>       0.50005000       0.67323000       0.06286000 </v>
   <v>       0.99995000       0.32677000       0.31286000 </v>
   <v>       0.74995000       0.67323000       0.31286000 </v>
   <v>       0.25005000       0.32677000       0.56286000 </v>
   <v>       0.00005000       0.67323000       0.56286000 </v>
   <v>       0.49995000       0.32677000       0.81286000 </v>
   <v>       0.24995000       0.67323000       0.81286000 </v>
   <v>       0.75005000       0.32677000       0.56286000 </v>
   <v>       0.50005000       0.67323000       0.56286000 </v>
   <v>       0.99995000       0.32677000       0.81286000 </v>
   <v>       0.74995000       0.67323000       0.81286000 </v>
   <v>       0.49987000       0.07798000       0.06246000 </v>
   <v>       0.24987000       0.92202000       0.06246000 </v>
   <v>       0.25013000       0.07798000       0.31246000 </v>
   <v>       0.00013000       0.92202000       0.31246000 </v>
   <v>       0.99987000       0.07798000       0.06246000 </v>
   <v>       0.74987000       0.92202000       0.06246000 </v>
   <v>       0.75013000       0.07798000       0.31246000 </v>
   <v>       0.50013000       0.92202000       0.31246000 </v>
   <v>       0.49987000       0.07798000       0.56246000 </v>
   <v>       0.24987000       0.92202000       0.56246000 </v>
   <v>       0.25013000       0.07798000       0.81246000 </v>
   <v>       0.00013000       0.92202000       0.81246000 </v>
   <v>       0.99987000       0.07798000       0.56246000 </v>
   <v>       0.74987000       0.92202000       0.56246000 </v>
   <v>       0.75013000       0.07798000       0.81246000 </v>
   <v>       0.50013000       0.92202000       0.81246000 </v>
  </varray>
 </structure>
 <calculation>
  <scstep>
   <time name="dav">   60.09   60.55</time>
   <time name="total">   60.17   60.65</time>
   <energy>
    <i name="alphaZ">   1054.17224280 </i>
    <i name="ewald"> -30176.42833756 </i>
    <i name="hartreedc"> -12704.71142442 </i>
    <i name="XCdc">   1173.55635289 </i>
    <i name="pawpsdc">  36541.05238669 </i>
    <i name="pawaedc"> -35795.85877930 </i>
    <i name="eentropy">      0.00000000 </i>
    <i name="bandstr">   1908.14363970 </i>
    <i name="atom">  43643.51795008 </i>
    <i name="e_fr_energy">   5643.44403087 </i>
    <i name="e_wo_entrp">   5643.44403087 </i>
    <i name="e_0_energy">   5643.44403087 </i>
   </energy>
  </scstep>
  <scstep>
   <time name="dav">   61.20   61.47</time>
   <time name="total">   61.21   61.48</time>
   <energy>
    <i name="e_fr_energy">    738.46296296 </i>
    <i name="e_wo_entrp">    738.46296296 </i>
    <i name="e_0_energy">    738.46296296 </i>
   </energy>
  </scstep>
  <scstep>
   <time name="dav">   69.12   69.51</time>
   <time name="total">   69.13   69.51</time>
   <energy>
    <i name="e_fr_energy">   -240.54883121 </i>
    <i name="e_wo_entrp">   -240.54883121 </i>
    <i name="e_0_energy">   -240.54883121 </i>
   </energy>
  </scstep>
  <scstep>
   <time name="dav">   72.05   72.50</time>
   <time name="total">   72.05   72.50</time>
   <energy>
    <i name="e_fr_energy">   -328.66884801 </i>
    <i name="e_wo_entrp">   -328.66884801 </i>
    <i name="e_0_energy">   -328.66884801 </i>
   </energy>
  </scstep>
  <scstep>
   <time name="dav">   89.68   90.45</time>
   <time name="total">   90.39   91.17</time>
   <energy>
    <i name="e_fr_energy">   -334.42603389 </i>
    <i name="e_wo_entrp">   -334.42603389 </i>
    <i name="e_0_energy">   -334.42603389 </i>
   </energy>
  </scstep>
  <scstep>
   <time name="dav">   85.62   86.82</time>
   <time name="total">   86.41   87.61</time>
   <energy>
    <i name="e_fr_energy">   -279.48730680 </i>
    <i name="e_wo_entrp">   -279.48730680 </i>
    <i name="e_0_energy">   -279.48730680 </i>
   </energy>
  </scstep>
  <scstep>
   <time name="dav">   64.92   65.52</time>
   <time name="total">   65.70   66.31</time>
   <energy>
    <i name="e_fr_energy">   -280.88615534 </i>
    <i name="e_wo_entrp">   -280.88615534 </i>
    <i name="e_0_energy">   -280.88615534 </i>
   </energy>
  </scstep>
  <scstep>
   <time name="dav">   80.06   80.45</time>
   <time name="total">   80.85   81.32</time>
   <energy>
    <i name="e_fr_energy">   -279.66601221 </i>
    <i name="e_wo_entrp">   -279.66601221 </i>
    <i name="e_0_energy">   -279.66601221 </i>
   </energy>
  </scstep>
  <scstep>
   <time name="dav">   69.70   70.77</time>
   <time name="total">   70.48   71.55</time>
   <energy>
    <i name="e_fr_energy">   -278.93016910 </i>
    <i name="e_wo_entrp">   -278.93016910 </i>
    <i name="e_0_energy">   -278.93016910 </i>
   </energy>
  </scstep>
  <scstep>
   <time name="dav">   79.44   80.31</time>
   <time name="total">   80.22   81.09</time>
   <energy>
    <i name="e_fr_energy">   -278.95414910 </i>
    <i name="e_wo_entrp">   -278.95414910 </i>
    <i name="e_0_energy">   -278.95414910 </i>
   </energy>
  </scstep>
  <scstep>
   <time name="dav">   70.90   71.51</time>
   <time name="total">   71.69   72.30</time>
   <energy>
    <i name="e_fr_energy">   -278.94834857 </i>
    <i name="e_wo_entrp">   -278.94834857 </i>
    <i name="e_0_energy">   -278.94834857 </i>
   </energy>
  </scstep>
  <scstep>
   <time name="dav">   79.25   79.72</time>
   <time name="total">   80.03   80.51</time>
   <energy>
    <i name="e_fr_energy">   -278.94857115 </i>
    <i name="e_wo_entrp">   -278.94857115 </i>
    <i name="e_0_energy">   -278.94857115 </i>
   </energy>
  </scstep>
  <scstep>
   <time name="dav">   73.62   73.62</time>
   <time name="total">   74.40   74.41</time>
   <energy>
    <i name="e_fr_energy">   -278.95142007 </i>
    <i name="e_wo_entrp">   -278.95142007 </i>
    <i name="e_0_energy">   -278.95142007 </i>
   </energy>
  </scstep>
  <scstep>
   <time name="dav">   77.91   77.89</time>
   <time name="total">   78.70   78.67</time>
   <energy>
    <i name="e_fr_energy">   -278.95155501 </i>
    <i name="e_wo_entrp">   -278.95155501 </i>
    <i name="e_0_energy">   -278.95155501 </i>
   </energy>
  </scstep>
  <scstep>
   <time name="dav">   75.22   75.23</time>
   <time name="total">   76.00   76.02</time>
   <energy>
    <i name="e_fr_energy">   -278.95164014 </i>
    <i name="e_wo_entrp">   -278.95164014 </i>
    <i name="e_0_energy">   -278.95164014 </i>
   </energy>
  </scstep>
  <scstep>
   <time name="dav">   78.38   78.39</time>
   <time name="total">   79.18   79.19</time>
   <energy>
    <i name="e_fr_energy">   -278.95166183 </i>
    <i name="e_wo_entrp">   -278.95166183 </i>
    <i name="e_0_energy">   -278.95166183 </i>
   </energy>
  </scstep>
  <scstep>
   <time name="dav">   73.18   73.22</time>
   <time name="total">   73.96   74.00</time>
   <energy>
    <i name="e_fr_energy">   -278.95169245 </i>
    <i name="e_wo_entrp">   -278.95169245 </i>
    <i name="e_0_energy">   -278.95169245 </i>
   </energy>
  </scstep>
  <scstep>
   <time name="dav">   69.58   69.70</time>
   <time name="total">   70.37   70.48</time>
   <energy>
    <i name="e_fr_energy">   -278.95169355 </i>
    <i name="e_wo_entrp">   -278.95169355 </i>
    <i name="e_0_energy">   -278.95169355 </i>
   </energy>
  </scstep>
  <scstep>
   <time name="dav">   60.66   60.78</time>
   <time name="total">   60.73   60.85</time>
   <energy>
    <i name="alphaZ">   1054.17224280 </i>
    <i name="ewald"> -30176.42833756 </i>
    <i name="hartreedc"> -12925.50577701 </i>
    <i name="XCdc">   1197.78851092 </i>
    <i name="pawpsdc">  43542.35859239 </i>
    <i name="pawaedc"> -42770.74794559 </i>
    <i name="eentropy">      0.00000000 </i>
    <i name="bandstr">  -3844.10693048 </i>
    <i name="atom">  43643.51795008 </i>
    <i name="e_fr_energy">   -278.95169444 </i>
    <i name="e_wo_entrp">   -278.95169444 </i>
    <i name="e_0_energy">   -278.95169444 </i>
   </energy>
  </scstep>
  <structure>
   <crystal>
    <varray name="basis" >
     <v>      11.17850000       0.00000000       0.00000000 </v>
     <v>       0.00000000       9.57460000       0.00000000 </v>
     <v>       0.00000000       0.00000000      11.18240000 </v>
    </varray>
    <i name="volume">   1196.84853820 </i>
    <varray name="rec_basis" >
     <v>       0.08945744       0.00000000       0.00000000 </v>
     <v>       0.00000000       0.10444301       0.00000000 </v>
     <v>       0.00000000       0.00000000       0.08942624 </v>
    </varray>
   </crystal>
   <varray name="positions" >
    <v>       0.12461000       0.99984000       0.18687000 </v>
    <v>       0.87539000       0.00017000       0.43687000 </v>
    <v>       0.12461000       0.99984000       0.68687000 </v>
    <v>       0.37461000       0.00017000       0.68687000 </v>
    <v>       0.62539000       0.99984000       0.43687000 </v>
    <v>       0.62461000       0.99984000       0.18687000 </v>
    <v>       0.87461000       0.00017000       0.18687000 </v>
    <v>       0.12539000       0.99984000       0.93687000 </v>
    <v>       0.62539000       0.99984000       0.93687000 </v>
    <v>       0.87539000       0.00017000       0.93687000 </v>
    <v>       0.00013000       0.29519000       0.06281000 </v>
    <v>       0.25013000       0.70481000       0.06281000 </v>
    <v>       0.24987000       0.29519000       0.31282000 </v>
    <v>       0.49987000       0.70481000       0.31282000 </v>
    <v>       0.50013000       0.29519000       0.06281000 </v>
    <v>       0.75013000       0.70481000       0.06281000 </v>
    <v>       0.74987000       0.29519000       0.31282000 </v>
    <v>       0.99987000       0.70481000       0.31282000 </v>
    <v>       0.00013000       0.29519000       0.56281000 </v>
    <v>       0.25013000       0.70481000       0.56281000 </v>
    <v>       0.24987000       0.29519000       0.81282000 </v>
    <v>       0.49987000       0.70481000       0.81282000 </v>
    <v>       0.50013000       0.29519000       0.56281000 </v>
    <v>       0.75013000       0.70481000       0.56281000 </v>
    <v>       0.74987000       0.29519000       0.81282000 </v>
    <v>       0.99987000       0.70481000       0.81282000 </v>
    <v>       0.25005000       0.32677000       0.06286000 </v>
    <v>       0.00005000       0.67323000       0.06286000 </v>
    <v>       0.49995000       0.32677000       0.31286000 </v>
    <v>       0.24995000       0.67323000       0.31286000 </v>
    <v>       0.75005000       0.32677000       0.06286000 </v>
    <v>       0.50005000       0.67323000       0.06286000 </v>
    <v>       0.99995000       0.32677000       0.31286000 </v>
    <v>       0.74995000       0.67323000       0.31286000 </v>
    <v>       0.25005000       0.32677000       0.56286000 </v>
    <v>       0.00005000       0.67323000       0.56286000 </v>
    <v>       0.49995000       0.32677000       0.81286000 </v>
    <v>       0.24995000       0.67323000       0.81286000 </v>
    <v>       0.75005000       0.32677000       0.56286000 </v>
    <v>       0.50005000       0.67323000       0.56286000 </v>
    <v>       0.99995000       0.32677000       0.81286000 </v>
    <v>       0.74995000       0.67323000       0.81286000 </v>
    <v>       0.49987000       0.07798000       0.06246000 </v>
    <v>       0.24987000       0.92202000       0.06246000 </v>
    <v>       0.25013000       0.07798000       0.31246000 </v>
    <v>       0.00013000       0.92202000       0.31246000 </v>
    <v>       0.99987000       0.07798000       0.06246000 </v>
    <v>       0.74987000       0.92202000       0.06246000 </v>
    <v>       0.75013000       0.07798000       0.31246000 </v>
    <v>       0.50013000       0.92202000       0.31246000 </v>
    <v>       0.49987000       0.07798000       0.56246000 </v>
    <v>       0.24987000       0.92202000       0.56246000 </v>
    <v>       0.25013000       0.07798000       0.81246000 </v>
    <v>       0.00013000       0.92202000       0.81246000 </v>
    <v>       0.99987000       0.07798000       0.56246000 </v>
    <v>       0.74987000       0.92202000       0.56246000 </v>
    <v>       0.75013000       0.07798000       0.81246000 </v>
    <v>       0.50013000       0.92202000       0.81246000 </v>
   </varray>
  </structure>
  <varray name="forces" >
   <v>       1.50126417      -0.10123285       1.09963651 </v>
   <v>       0.93255578      -0.12790351       1.35422914 </v>
   <v>       0.05747696       0.09337615      -1.11393207 </v>
   <v>       0.19836081      -0.10239770      -0.32476580 </v>
   <v>      -1.43757528      -0.32270991       2.42652418 </v>
   <v>      -2.87731265       0.12914989       0.41864076 </v>
   <v>       1.54255492      -0.18822142       1.63817578 </v>
   <v>       2.45206539      -0.31365936      -0.37722594 </v>
   <v>      -2.45029578       0.33356932      -2.34129151 </v>
   <v>       0.08065782       0.21469504      -2.59412560 </v>
   <v>       0.83274386       3.12850285       0.19880880 </v>
   <v>       0.48870104       0.79046914       0.19329179 </v>
   <v>       0.17042644      -2.60890687       0.54080783 </v>
   <v>      -1.05341061      -0.17893529       0.49562910 </v>
   <v>      -1.01038050       0.27703167      -0.04605765 </v>
   <v>      -0.32367098      -3.99412678      -0.15427527 </v>
   <v>      -0.02700731       3.12562084       0.80436655 </v>
   <v>       0.92322730      -0.27436094       0.85202433 </v>
   <v>       0.45725302      -1.85494252      -0.08425087 </v>
   <v>       0.03696563       1.90226041      -0.35235380 </v>
   <v>       0.38570618       0.06226771      -0.45065791 </v>
   <v>      -0.44551779       0.99618575      -0.52651852 </v>
   <v>      -0.51074115      -1.02913718       0.08933362 </v>
   <v>      -0.03514644       0.84348893       0.38631219 </v>
   <v>      -0.23566900       0.31159279      -1.04733399 </v>
   <v>       0.36112332      -1.16715960      -0.97771766 </v>
   <v>      -0.39791932       0.09548443      -0.34641373 </v>
   <v>      -0.56795011       0.13635471      -0.09900764 </v>
   <v>       0.82143604       0.02556597      -0.33704632 </v>
   <v>      -0.12346469      -0.19988132      -0.32270538 </v>
   <v>       0.22826052      -0.29526219       0.15991273 </v>
   <v>       0.71324181       0.03573438       0.10787607 </v>
   <v>      -0.73475747       0.00830101      -0.68706961 </v>
   <v>       0.03303150       0.06589352      -0.59882301 </v>
   <v>       0.04932760       0.29880535       0.38029634 </v>
   <v>      -0.28646299      -0.21085837       0.06709278 </v>
   <v>       0.29919381       0.15212697       0.36942748 </v>
   <v>      -0.36065994      -0.23509460       0.35005180 </v>
   <v>      -0.08288025       0.12120875      -0.28206504 </v>
   <v>       0.35175468      -0.24574327      -0.18395986 </v>
   <v>      -0.21184461      -0.00029179       0.70295141 </v>
   <v>       0.23300392       0.08617989       0.69642730 </v>
   <v>       2.70423713      -0.51407782       0.09547975 </v>
   <v>      -2.01053840      -0.51257356      -0.58098621 </v>
   <v>      -0.64463613       2.20077408      -0.71299316 </v>
   <v>      -1.66120907       0.48815117      -1.63813498 </v>
   <v>      -1.14195342      -2.51258273      -0.47416743 </v>
   <v>       0.43221293       3.12447467       0.28223783 </v>
   <v>      -0.26616162      -2.43330507      -1.19786352 </v>
   <v>       2.61345374       0.34961154      -0.32981302 </v>
   <v>       0.74374708       1.04689052      -0.61858616 </v>
   <v>      -0.03222906      -1.67290785       1.24079662 </v>
   <v>      -1.37671981       0.07948676       0.17810681 </v>
   <v>       0.26113058       1.03917319       2.11327253 </v>
   <v>      -0.22200563       1.63278005       0.00719210 </v>
   <v>      -0.39095673      -0.58530918      -1.93361396 </v>
   <v>       0.25340704      -0.57801737       2.68213888 </v>
   <v>       0.76055576      -0.93560839       0.80271458 </v>
  </varray>
  <varray name="stress" >
   <v>       1.97039459       0.47941095      -3.03933881 </v>
   <v>       0.47941091     -11.40002190       0.14510925 </v>
   <v>      -3.03933884       0.14510928       2.61460539 </v>
  </varray>
  <energy>
   <i name="e_fr_energy">   -290.61116627 </i>
   <i name="e_wo_entrp">   -290.61116627 </i>
   <i name="e_0_energy">      0.00000000 </i>
  </energy>
  <time name="totalsc"> 1522.14 1531.22</time>
 </calculation>
 <calculation>
  <scstep>
   <time name="dav">   67.22   67.87</time>
   <time name="total">   68.00   68.65</time>
   <energy>
    <i name="alphaZ">   1058.67830885 </i>
    <i name="ewald"> -30185.50162744 </i>
    <i name="hartreedc"> -12953.23533308 </i>
    <i name="XCdc">   1200.60443703 </i>
    <i name="pawpsdc">  43542.11765346 </i>
    <i name="pawaedc"> -42770.50404797 </i>
    <i name="eentropy">      0.00000000 </i>
    <i name="bandstr">  -3813.02632676 </i>
    <i name="atom">  43643.51795008 </i>
    <i name="e_fr_energy">   -277.34898583 </i>
    <i name="e_wo_entrp">   -277.34898583 </i>
    <i name="e_0_energy">   -277.34898583 </i>
   </energy>
  </scstep>
  <scstep>
   <time name="dav">   67.05   67.67</time>
   <time name="total">   67.83   68.45</time>
   <energy>
    <i name="e_fr_energy">   -284.07772257 </i>
    <i name="e_wo_entrp">   -284.07772257 </i>
    <i name="e_0_energy">   -284.07772257 </i>
   </energy>
  </scstep>
  <scstep>
   <time name="dav">   85.31   85.30</time>
   <time name="total">   86.08   86.08</time>
   <energy>
    <i name="e_fr_energy">   -283.80358807 </i>
    <i name="e_wo_entrp">   -283.80358807 </i>
    <i name="e_0_energy">   -283.80358807 </i>
   </energy>
  </scstep>
  <scstep>
   <time name="dav">   78.71   78.81</time>
   <time name="total">   79.49   79.59</time>
   <energy>
    <i name="e_fr_energy">   -283.60672461 </i>
    <i name="e_wo_entrp">   -283.60672461 </i>
    <i name="e_0_energy">   -283.60672461 </i>
   </energy>
  </scstep>
  <scstep>
   <time name="dav">   79.45   80.06</time>
   <time name="total">   80.23   80.84</time>
   <energy>
    <i name="e_fr_energy">   -283.51385983 </i>
    <i name="e_wo_entrp">   -283.51385983 </i>
    <i name="e_0_energy">   -283.51385983 </i>
   </energy>
  </scstep>
  <scstep>
   <time name="dav">   75.63   75.89</time>
   <time name="total">   76.40   76.67</time>
   <energy>
    <i name="e_fr_energy">   -283.50879627 </i>
    <i name="e_wo_entrp">   -283.50879627 </i>
    <i name="e_0_energy">   -283.50879627 </i>
   </energy>
  </scstep>
  <scstep>
   <time name="dav">   73.31   73.42</time>
   <time name="total">   74.09   74.21</time>
   <energy>
    <i name="e_fr_energy">   -283.50859210 </i>
    <i name="e_wo_entrp">   -283.50859210 </i>
    <i name="e_0_energy">   -283.50859210 </i>
   </energy>
  </scstep>
  <scstep>
   <time name="dav">   74.50   75.16</time>
   <time name="total">   75.28   75.94</time>
   <energy>
    <i name="e_fr_energy">   -283.50713896 </i>
    <i name="e_wo_entrp">   -283.50713896 </i>
    <i name="e_0_energy">   -283.50713896 </i>
   </energy>
  </scstep>
  <scstep>
   <time name="dav">   91.61   92.76</time>
   <time name="total">   92.39   93.54</time>
   <energy>
    <i name="e_fr_energy">   -283.50694047 </i>
    <i name="e_wo_entrp">   -283.50694047 </i>
    <i name="e_0_energy">   -283.50694047 </i>
   </energy>
  </scstep>
  <scstep>
   <time name="dav">   74.00   74.35</time>
   <time name="total">   74.77   75.13</time>
   <energy>
    <i name="e_fr_energy">   -283.50698591 </i>
    <i name="e_wo_entrp">   -283.50698591 </i>
    <i name="e_0_energy">   -283.50698591 </i>
   </energy>
  </scstep>
  <scstep>
   <time name="dav">   82.83   83.16</time>
   <time name="total">   83.61   83.94</time>
   <energy>
    <i name="e_fr_energy">   -283.50699484 </i>
    <i name="e_wo_entrp">   -283.50699484 </i>
    <i name="e_0_energy">   -283.50699484 </i>
   </energy>
  </scstep>
  <scstep>
   <time name="dav">   69.16   69.23</time>
   <time name="total">   69.98   70.05</time>
   <energy>
    <i name="e_fr_energy">   -283.50699994 </i>
    <i name="e_wo_entrp">   -283.50699994 </i>
    <i name="e_0_energy">   -283.50699994 </i>
   </energy>
  </scstep>
  <scstep>
   <time name="dav">   72.18   72.40</time>
   <time name="total">   72.96   73.18</time>
   <energy>
    <i name="e_fr_energy">   -283.50700114 </i>
    <i name="e_wo_entrp">   -283.50700114 </i>
    <i name="e_0_energy">   -283.50700114 </i>
   </energy>
  </scstep>
  <scstep>
   <time name="dav">   48.59   48.67</time>
   <time name="total">   48.66   48.74</time>
   <energy>
    <i name="alphaZ">   1058.67830885 </i>
    <i name="ewald"> -30185.50162744 </i>
    <i name="hartreedc"> -12937.29914970 </i>
    <i name="XCdc">   1200.67797645 </i>
    <i name="pawpsdc">  43821.78661288 </i>
    <i name="pawaedc"> -43052.85331733 </i>
    <i name="eentropy">      0.00000000 </i>
    <i name="bandstr">  -3832.51375484 </i>
    <i name="atom">  43643.51795008 </i>
    <i name="e_fr_energy">   -283.50700104 </i>
    <i name="e_wo_entrp">   -283.50700104 </i>
    <i name="e_0_energy">   -283.50700104 </i>
   </energy>
  </scstep>
  <structure>
   <crystal>
    <varray name="basis" >
     <v>      11.19218575       0.00332984      -0.02111030 </v>
     <v>       0.00285207       9.50677995       0.00086327 </v>
     <v>      -0.02111767       0.00100824      11.20056657 </v>
    </varray>
    <i name="volume">   1191.75437643 </i>
    <varray name="rec_basis" >
     <v>       0.08934838      -0.00002682       0.00016846 </v>
     <v>      -0.00003131       0.10518810      -0.00000953 </v>
     <v>       0.00016840      -0.00000816       0.08928152 </v>
    </varray>
   </crystal>
   <varray name="positions" >
    <v>       0.13108895       0.99932993       0.19161401 </v>
    <v>       0.87941460      -0.00047446       0.44271236 </v>
    <v>       0.12485805       0.00031049       0.68206432 </v>
    <v>       0.37546606      -0.00034594       0.68546891 </v>
    <v>       0.61918591       0.99821399       0.44733841 </v>
    <v>       0.61219248       0.00049074       0.18867608 </v>
    <v>       0.88126715      -0.00077837       0.19393735 </v>
    <v>       0.13597229       0.99825959       0.93524259 </v>
    <v>       0.61481535       0.00152072       0.92676930 </v>
    <v>       0.87573809       0.00125176       0.92567853 </v>
    <v>       0.00372384       0.31095330       0.06366769 </v>
    <v>       0.25223907       0.70879286       0.06364389 </v>
    <v>       0.25060550       0.28204474       0.31515313 </v>
    <v>       0.49532383       0.70390842       0.31495822 </v>
    <v>       0.49576954       0.29658585       0.06261130 </v>
    <v>       0.74873314       0.68468516       0.06214443 </v>
    <v>       0.74975345       0.31093878       0.31629017 </v>
    <v>       0.00385434       0.70342760       0.31649577 </v>
    <v>       0.00210335       0.28584367       0.56244653 </v>
    <v>       0.25028953       0.71439474       0.56128989 </v>
    <v>       0.25153458       0.29550374       0.81087579 </v>
    <v>       0.49794729       0.70982939       0.81054852 </v>
    <v>       0.49792581       0.29000458       0.56319540 </v>
    <v>       0.74997832       0.70906001       0.56447661 </v>
    <v>       0.74885293       0.29675999       0.80830163 </v>
    <v>       0.00142849       0.69892914       0.80860197 </v>
    <v>       0.24833271       0.32725111       0.06136552 </v>
    <v>      -0.00240108       0.67391704       0.06243287 </v>
    <v>       0.50349504       0.32689882       0.31140593 </v>
    <v>       0.24941717       0.67222288       0.31146780 </v>
    <v>       0.75103510       0.32528229       0.06354989 </v>
    <v>       0.50312811       0.67341005       0.06332539 </v>
    <v>       0.99677903       0.32681183       0.30989587 </v>
    <v>       0.75009255       0.67356201       0.31027658 </v>
    <v>       0.25026288       0.32827556       0.56450066 </v>
    <v>      -0.00118628       0.67216757       0.56314945 </v>
    <v>       0.50124122       0.32753651       0.81445377 </v>
    <v>       0.24839351       0.67204545       0.81437018 </v>
    <v>       0.74969232       0.32738072       0.56164313 </v>
    <v>       0.50156806       0.67199180       0.56206637 </v>
    <v>       0.99903575       0.32676853       0.81589264 </v>
    <v>       0.75095557       0.67366423       0.81586450 </v>
    <v>       0.51154058       0.07538976       0.06287191 </v>
    <v>       0.24119319       0.91943734       0.05995353 </v>
    <v>       0.24734797       0.08906884       0.30938403 </v>
    <v>      -0.00703922       0.92447960       0.30539282 </v>
    <v>       0.99494171       0.06532008       0.06041437 </v>
    <v>       0.75173529       0.93776300       0.06367762 </v>
    <v>       0.74898134       0.06571953       0.30729223 </v>
    <v>       0.51140879       0.92378156       0.31103713 </v>
    <v>       0.50307976       0.08325487       0.55979132 </v>
    <v>       0.24973091       0.91359087       0.56781299 </v>
    <v>       0.24418854       0.07838050       0.81322838 </v>
    <v>       0.00125695       0.92725599       0.82157699 </v>
    <v>       0.99891190       0.08620694       0.56249103 </v>
    <v>       0.74818276       0.91907086       0.55411808 </v>
    <v>       0.75122362       0.07506760       0.82403117 </v>
    <v>       0.50341230       0.91730584       0.81592304 </v>
   </varray>
  </structure>
  <varray name="forces" >
   <v>       0.83598292      -0.07062297       0.59982235 </v>
   <v>       0.40287733      -0.08842372       0.70896441 </v>
   <v>      -0.07693862       0.05587710      -0.65789713 </v>
   <v>       0.12105394      -0.04752216      -0.20954244 </v>
   <v>      -0.30856979      -0.17099843       0.56300156 </v>
   <v>       0.10960088       0.08880505      -0.11158175 </v>
   <v>      -0.46084048       0.24472006      -0.47656536 </v>
   <v>       0.41322201      -0.07244851       0.09670673 </v>
   <v>      -0.32116474       0.39048281      -0.26848696 </v>
   <v>       0.05329091      -0.02927923       0.05558000 </v>
   <v>       0.10650720      -0.00927801       0.05167192 </v>
   <v>       0.19092631      -0.53304496       0.07689151 </v>
   <v>       0.18839647       3.73401474       0.45279440 </v>
   <v>      -0.32891986       0.11509592       0.18980162 </v>
   <v>      -0.28003600      -0.21748296       0.05702812 </v>
   <v>       0.00482577      -0.07226438       0.06267918 </v>
   <v>      -0.01551182       0.00848628       0.08383286 </v>
   <v>       0.24400084       0.19246003       0.20553582 </v>
   <v>       0.26036464       2.35996907      -0.04017839 </v>
   <v>       0.01211665      -2.45458719      -0.30547967 </v>
   <v>       0.06663391       0.42213299      -0.23680003 </v>
   <v>      -0.21562360      -1.26536846      -0.22840851 </v>
   <v>      -0.30811365       1.44218305      -0.00592010 </v>
   <v>       0.01518207      -0.62217062       0.17084782 </v>
   <v>       0.01221978      -0.26435714      -0.30826620 </v>
   <v>       0.15544641       0.18011758      -0.21943408 </v>
   <v>      -0.17933962       0.07592351      -0.20460079 </v>
   <v>      -0.16069933      -0.32127991      -0.02032428 </v>
   <v>       0.42529537       0.08229499      -0.18154720 </v>
   <v>      -0.08017005      -0.03735594      -0.18621390 </v>
   <v>       0.03463017       0.37736809       0.01499707 </v>
   <v>       0.29003114      -0.03840346       0.03664765 </v>
   <v>      -0.34801156       0.11650005      -0.32491696 </v>
   <v>       0.02246764      -0.35765391      -0.18746378 </v>
   <v>       0.08686862       0.13454148       0.33724057 </v>
   <v>      -0.12737319      -0.07032266       0.02727918 </v>
   <v>       0.17860451       0.00681933       0.19840167 </v>
   <v>      -0.19831359      -0.17498723       0.17655538 </v>
   <v>      -0.09219741       0.08171374      -0.12481165 </v>
   <v>       0.18371426      -0.08890845      -0.13349277 </v>
   <v>      -0.11248844       0.14415730       0.30721704 </v>
   <v>       0.06699915      -0.01782380       0.28087638 </v>
   <v>       0.91879748       0.62122015      -0.50175316 </v>
   <v>      -1.02481305       0.41960460      -0.05000001 </v>
   <v>      -0.59560686      -4.16042536      -0.68473216 </v>
   <v>      -0.12018895      -0.63974430      -0.09875817 </v>
   <v>      -0.03727757       0.73906802      -0.37872268 </v>
   <v>      -0.09975918      -0.77011711      -0.09433928 </v>
   <v>      -0.44256535       0.74382240      -0.02751630 </v>
   <v>       0.95295519      -0.54803837       0.60317276 </v>
   <v>       0.15459389      -1.18296843      -0.05887941 </v>
   <v>       0.02746294       2.70181907       1.17425663 </v>
   <v>      -0.52666409      -0.07043258      -0.41590432 </v>
   <v>       0.85227204      -0.70295308       0.61176721 </v>
   <v>      -0.08724570      -2.54109221       0.02811547 </v>
   <v>      -0.18223293       0.62026512      -1.16707544 </v>
   <v>      -0.52362976       0.68613924       0.86640446 </v>
   <v>      -0.13304526       0.85475375      -0.12847691 </v>
  </varray>
  <varray name="stress" >
   <v>       8.85829922      -1.59802283       2.42783383 </v>
   <v>      -1.59802281      18.03693623      -1.71878243 </v>
   <v>       2.42783392      -1.71878235       8.57616115 </v>
  </varray>
  <energy>
   <i name="e_fr_energy">   -295.20901176 </i>
   <i name="e_wo_entrp">   -295.20901176 </i>
   <i name="e_0_energy">      0.00000000 </i>
  </energy>
  <time name="totalsc"> 1157.88 1163.46</time>
 </calculation>
 <calculation>
  <scstep>
   <time name="dav">   64.20   64.44</time>
   <time name="total">   64.98   65.23</time>
   <energy>
    <i name="alphaZ">   1058.22505120 </i>
    <i name="ewald"> -30190.47039585 </i>
    <i name="hartreedc"> -12929.55131862 </i>
    <i name="XCdc">   1200.32193402 </i>
    <i name="pawpsdc">  43821.81074960 </i>
    <i name="pawaedc"> -43052.87711314 </i>
    <i name="eentropy">      0.00000000 </i>
    <i name="bandstr">  -3834.48641071 </i>
    <i name="atom">  43643.51795008 </i>
    <i name="e_fr_energy">   -283.50955342 </i>
    <i name="e_wo_entrp">   -283.50955342 </i>
    <i name="e_0_energy">   -283.50955342 </i>
   </energy>
  </scstep>
  <scstep>
   <time name="dav">   69.17   69.45</time>
   <time name="total">   69.95   70.23</time>
   <energy>
    <i name="e_fr_energy">   -283.57895920 </i>
    <i name="e_wo_entrp">   -283.57895920 </i>
    <i name="e_0_energy">   -283.57895920 </i>
   </energy>
  </scstep>
  <scstep>
   <time name="dav">   80.81   81.49</time>
   <time name="total">   81.59   82.27</time>
   <energy>
    <i name="e_fr_energy">   -283.57691507 </i>
    <i name="e_wo_entrp">   -283.57691507 </i>
    <i name="e_0_energy">   -283.57691507 </i>
   </energy>
  </scstep>
  <scstep>
   <time name="dav">   69.76   70.21</time>
   <time name="total">   70.53   70.99</time>
   <energy>
    <i name="e_fr_energy">   -283.57387535 </i>
    <i name="e_wo_entrp">   -283.57387535 </i>
    <i name="e_0_energy">   -283.57387535 </i>
   </energy>
  </scstep>
  <scstep>
   <time name="dav">   78.65   78.94</time>
   <time name="total">   79.43   79.73</time>
   <energy>
    <i name="e_fr_energy">   -283.57296572 </i>
    <i name="e_wo_entrp">   -283.57296572 </i>
    <i name="e_0_energy">   -283.57296572 </i>
   </energy>
  </scstep>
  <scstep>
   <time name="dav">   75.26   75.38</time>
   <time name="total">   76.04   76.17</time>
   <energy>
    <i name="e_fr_energy">   -283.57292411 </i>
    <i name="e_wo_entrp">   -283.57292411 </i>
    <i name="e_0_energy">   -283.57292411 </i>
   </energy>
  </scstep>
  <scstep>
   <time name="dav">   72.52   72.58</time>
   <time name="total">   73.31   73.36</time>
   <energy>
    <i name="e_fr_energy">   -283.57291431 </i>
    <i name="e_wo_entrp">   -283.57291431 </i>
    <i name="e_0_energy">   -283.57291431 </i>
   </energy>
  </scstep>
  <scstep>
   <time name="dav">   69.92   70.06</time>
   <time name="total">   70.70   70.84</time>
   <energy>
    <i name="e_fr_energy">   -283.57290321 </i>
    <i name="e_wo_entrp">   -283.57290321 </i>
    <i name="e_0_energy">   -283.57290321 </i>
   </energy>
  </scstep>
  <scstep>
   <time name="dav">   89.87   89.99</time>
   <time name="total">   90.74   90.87</time>
   <energy>
    <i name="e_fr_energy">   -283.57290337 </i>
    <i name="e_wo_entrp">   -283.57290337 </i>
    <i name="e_0_energy">   -283.57290337 </i>
   </energy>
  </scstep>
  <scstep>
   <time name="dav">   60.91   61.00</time>
   <time name="total">   61.68   61.79</time>
   <energy>
    <i name="e_fr_energy">   -283.57290462 </i>
    <i name="e_wo_entrp">   -283.57290462 </i>
    <i name="e_0_energy">   -283.57290462 </i>
   </energy>
  </scstep>
  <scstep>
   <time name="dav">   51.37   51.48</time>
   <time name="total">   51.44   51.55</time>
   <energy>
    <i name="alphaZ">   1058.22505120 </i>
    <i name="ewald"> -30190.47039585 </i>
    <i name="hartreedc"> -12931.52787187 </i>
    <i name="XCdc">   1200.34242633 </i>
    <i name="pawpsdc">  43775.00584483 </i>
    <i name="pawaedc"> -43005.48264591 </i>
    <i name="eentropy">      0.00000000 </i>
    <i name="bandstr">  -3833.18326381 </i>
    <i name="atom">  43643.51795008 </i>
    <i name="e_fr_energy">   -283.57290500 </i>
    <i name="e_wo_entrp">   -283.57290500 </i>
    <i name="e_0_energy">   -283.57290500 </i>
   </energy>
  </scstep>
  <structure>
   <crystal>
    <varray name="basis" >
     <v>      11.19082070       0.00299771      -0.01900471 </v>
     <v>       0.00256760       9.51354449       0.00077717 </v>
     <v>      -0.01901134       0.00090767      11.19875459 </v>
    </varray>
    <i name="volume">   1192.26482720 </i>
    <varray name="rec_basis" >
     <v>       0.08935922      -0.00002413       0.00015170 </v>
     <v>      -0.00002817       0.10511330      -0.00000857 </v>
     <v>       0.00015165      -0.00000734       0.08929590 </v>
    </varray>
   </crystal>
   <varray name="positions" >
    <v>       0.13044261       0.99938144       0.19114037 </v>
    <v>       0.87901255      -0.00040951       0.44212981 </v>
    <v>       0.12483426       0.00026318       0.68254283 </v>
    <v>       0.37538103      -0.00029410       0.68560827 </v>
    <v>       0.61980196       0.99837723       0.44629711 </v>
    <v>       0.61342921       0.00042495       0.18849857 </v>
    <v>       0.88060261      -0.00068280       0.19323232 </v>
    <v>       0.13491834       0.99841870       0.93540265 </v>
    <v>       0.61587074       0.00135141       0.92777713 </v>
    <v>       0.87570555       0.00114299       0.92679293 </v>
    <v>       0.00336606       0.30936995       0.06358173 </v>
    <v>       0.25202891       0.70839285       0.06356049 </v>
    <v>       0.25053146       0.28336529       0.31492055 </v>
    <v>       0.49577630       0.70399885       0.31474614 </v>
    <v>       0.49620400       0.29644548       0.06263192 </v>
    <v>       0.74887191       0.68670673       0.06221082 </v>
    <v>       0.74976481       0.30935678       0.31594475 </v>
    <v>       0.00345669       0.70356665       0.31612897 </v>
    <v>       0.00190659       0.28678261       0.56248228 </v>
    <v>       0.25027417       0.71343191       0.56144131 </v>
    <v>       0.25136912       0.29547226       0.81106909 </v>
    <v>       0.49813939       0.70932508       0.81077511 </v>
    <v>       0.49814519       0.29052540       0.56315739 </v>
    <v>       0.74999323       0.70863309       0.56431071 </v>
    <v>       0.74895514       0.29660220       0.80875178 </v>
    <v>       0.00127387       0.69951991       0.80902167 </v>
    <v>       0.24850408       0.32720270       0.06151466 </v>
    <v>      -0.00215681       0.67384793       0.06247587 </v>
    <v>       0.50314216       0.32688599       0.31155006 </v>
    <v>       0.24947048       0.67232401       0.31160653 </v>
    <v>       0.75093679       0.32543178       0.06348099 </v>
    <v>       0.50282139       0.67339208       0.06327847 </v>
    <v>       0.99709549       0.32680748       0.31019164 </v>
    <v>       0.75007885       0.67352864       0.31053382 </v>
    <v>       0.25024140       0.32812435       0.56433725 </v>
    <v>      -0.00106320       0.67227425       0.56312085 </v>
    <v>       0.50111231       0.32745957       0.81429482 </v>
    <v>       0.24854826       0.67216441       0.81422008 </v>
    <v>       0.74972819       0.32731935       0.56176438 </v>
    <v>       0.50141694       0.67211622       0.56214510 </v>
    <v>       0.99912626       0.32676868       0.81559082 </v>
    <v>       0.75085484       0.67362067       0.81556512 </v>
    <v>       0.51037780       0.07565038       0.06282868 </v>
    <v>       0.24205799       0.91969645       0.06020474 </v>
    <v>       0.24762598       0.08795479       0.30969095 </v>
    <v>      -0.00632363       0.92423220       0.30609795 </v>
    <v>       0.99543273       0.06659163       0.06061890 </v>
    <v>       0.75154964       0.93618163       0.06355614 </v>
    <v>       0.74909642       0.06695105       0.30780696 </v>
    <v>       0.51028550       0.92360498       0.31117672 </v>
    <v>       0.50276064       0.08272507       0.56005651 </v>
    <v>       0.24974354       0.91443767       0.56727990 </v>
    <v>       0.24478030       0.07834007       0.81315298 </v>
    <v>       0.00114311       0.92673015       0.82066894 </v>
    <v>       0.99900755       0.08538048       0.56248818 </v>
    <v>       0.74835234       0.91936696       0.55494907 </v>
    <v>       0.75111242       0.07536032       0.82287868 </v>
    <v>       0.50308455       0.91777954       0.81557753 </v>
   </varray>
  </structure>
  <varray name="forces" >
   <v>       0.90417941      -0.06707469       0.65112313 </v>
   <v>       0.45371370      -0.08890084       0.77211762 </v>
   <v>      -0.06441188       0.05817341      -0.70508762 </v>
   <v>       0.12858579      -0.05456629      -0.22176947 </v>
   <v>      -0.41783965      -0.16859987       0.75485123 </v>
   <v>      -0.22299009       0.08204292      -0.05637833 </v>
   <v>      -0.21447493       0.16168232      -0.21721277 </v>
   <v>       0.63246012      -0.09558581       0.06352941 </v>
   <v>      -0.54792963       0.34737069      -0.48611580 </v>
   <v>       0.03490334       0.00286900      -0.23799664 </v>
   <v>       0.18084239       0.17044511       0.06542937 </v>
   <v>       0.21083224      -0.38160873       0.08750319 </v>
   <v>       0.16627113       2.69967539       0.43141057 </v>
   <v>      -0.40433229       0.08484908       0.22366103 </v>
   <v>      -0.35345365      -0.16986569       0.04549846 </v>
   <v>      -0.02898665      -0.27626285       0.04138270 </v>
   <v>      -0.01853060       0.18922409       0.15559427 </v>
   <v>       0.31638269       0.14874280       0.27255451 </v>
   <v>       0.27490090       1.74421779      -0.04365468 </v>
   <v>       0.01390880      -1.81996985      -0.28848859 </v>
   <v>       0.09748457       0.38496989      -0.26014083 </v>
   <v>      -0.23405703      -0.98745712      -0.25399419 </v>
   <v>      -0.32412432       1.13096082      -0.00022602 </v>
   <v>       0.00838502      -0.45121172       0.18244914 </v>
   <v>      -0.01491692      -0.21039638      -0.38184259 </v>
   <v>       0.17931718       0.07200133      -0.29899902 </v>
   <v>      -0.20522062       0.08013864      -0.21984578 </v>
   <v>      -0.20200758      -0.27994246      -0.02861972 </v>
   <v>       0.47038061       0.07951257      -0.19702395 </v>
   <v>      -0.08424025      -0.05511773      -0.20015161 </v>
   <v>       0.05233587       0.31973112       0.02782693 </v>
   <v>       0.33724415      -0.03211186       0.04288936 </v>
   <v>      -0.39116303       0.10960597      -0.36379796 </v>
   <v>       0.02261539      -0.31881081      -0.22934223 </v>
   <v>       0.08369570       0.15566608       0.34387714 </v>
   <v>      -0.14414998      -0.08604527       0.03299685 </v>
   <v>       0.19172526       0.02270866       0.21622376 </v>
   <v>      -0.21586303      -0.18298801       0.19441961 </v>
   <v>      -0.09160531       0.08698353      -0.14403637 </v>
   <v>       0.20166802      -0.10773975      -0.13876052 </v>
   <v>      -0.12193416       0.13172610       0.34885757 </v>
   <v>       0.08242934      -0.00910244       0.32596975 </v>
   <v>       1.12518643       0.48991325      -0.40989115 </v>
   <v>      -1.13098713       0.32029170      -0.12241314 </v>
   <v>      -0.58144986      -3.13382158      -0.65869575 </v>
   <v>      -0.33938526      -0.49256933      -0.31632762 </v>
   <v>      -0.14934085       0.53563197      -0.39245191 </v>
   <v>      -0.05480838      -0.54619831      -0.06224559 </v>
   <v>      -0.43083775       0.54279529      -0.14356866 </v>
   <v>       1.15398902      -0.43150287       0.46265084 </v>
   <v>       0.22222293      -0.91067411      -0.12340154 </v>
   <v>       0.02262451       2.07174751       1.16237928 </v>
   <v>      -0.62192718      -0.06413403      -0.34073519 </v>
   <v>       0.76947140      -0.54135589       0.78420285 </v>
   <v>      -0.09362412      -1.93590610       0.02587699 </v>
   <v>      -0.20873622       0.48112316      -1.24114838 </v>
   <v>      -0.40484850       0.54137282       1.08026866 </v>
   <v>      -0.01957903       0.65334740      -0.01118060 </v>
  </varray>
  <varray name="stress" >
   <v>       7.65953351      -1.33347740       1.83155345 </v>
   <v>      -1.33347756      11.94931130      -1.52815444 </v>
   <v>       1.83155324      -1.52815377       7.42557576 </v>
  </varray>
  <energy>
   <i name="e_fr_energy">   -295.26942680 </i>
   <i name="e_wo_entrp">   -295.26942680 </i>
   <i name="e_0_energy">      0.00000000 </i>
  </energy>
  <time name="totalsc">  898.18  900.98</time>
 </calculation>
 <calculation>
  <scstep>
   <time name="dav">   69.80   70.13</time>
   <time name="total">   70.59   70.93</time>
   <energy>
    <i name="alphaZ">   1042.26270738 </i>
    <i name="ewald"> -30160.89224036 </i>
    <i name="hartreedc"> -12751.12687566 </i>
    <i name="XCdc">   1191.05251732 </i>
    <i name="pawpsdc">  43775.37322595 </i>
    <i name="pawaedc"> -43005.85013298 </i>
    <i name="eentropy">      0.00000000 </i>
    <i name="bandstr">  -4016.99715708 </i>
    <i name="atom">  43643.51795008 </i>
    <i name="e_fr_energy">   -282.66000534 </i>
    <i name="e_wo_entrp">   -282.66000534 </i>
    <i name="e_0_energy">   -282.66000534 </i>
   </energy>
  </scstep>
  <scstep>
   <time name="dav">   68.69   68.70</time>
   <time name="total">   69.46   69.48</time>
   <energy>
    <i name="e_fr_energy">   -284.67263862 </i>
    <i name="e_wo_entrp">   -284.67263862 </i>
    <i name="e_0_energy">   -284.67263862 </i>
   </energy>
  </scstep>
  <scstep>
   <time name="dav">   78.64   78.77</time>
   <time name="total">   79.42   79.55</time>
   <energy>
    <i name="e_fr_energy">   -284.55605906 </i>
    <i name="e_wo_entrp">   -284.55605906 </i>
    <i name="e_0_energy">   -284.55605906 </i>
   </energy>
  </scstep>
  <scstep>
   <time name="dav">   78.54   78.63</time>
   <time name="total">   79.32   79.42</time>
   <energy>
    <i name="e_fr_energy">   -284.50752698 </i>
    <i name="e_wo_entrp">   -284.50752698 </i>
    <i name="e_0_energy">   -284.50752698 </i>
   </energy>
  </scstep>
  <scstep>
   <time name="dav">   75.79   76.13</time>
   <time name="total">   76.56   76.91</time>
   <energy>
    <i name="e_fr_energy">   -284.48019644 </i>
    <i name="e_wo_entrp">   -284.48019644 </i>
    <i name="e_0_energy">   -284.48019644 </i>
   </energy>
  </scstep>
  <scstep>
   <time name="dav">   76.05   76.46</time>
   <time name="total">   76.83   77.25</time>
   <energy>
    <i name="e_fr_energy">   -284.47563619 </i>
    <i name="e_wo_entrp">   -284.47563619 </i>
    <i name="e_0_energy">   -284.47563619 </i>
   </energy>
  </scstep>
  <scstep>
   <time name="dav">   80.03   80.28</time>
   <time name="total">   80.89   81.15</time>
   <energy>
    <i name="e_fr_energy">   -284.47541712 </i>
    <i name="e_wo_entrp">   -284.47541712 </i>
    <i name="e_0_energy">   -284.47541712 </i>
   </energy>
  </scstep>
  <scstep>
   <time name="dav">   82.11   82.25</time>
   <time name="total">   82.90   83.04</time>
   <energy>
    <i name="e_fr_energy">   -284.47510535 </i>
    <i name="e_wo_entrp">   -284.47510535 </i>
    <i name="e_0_energy">   -284.47510535 </i>
   </energy>
  </scstep>
  <scstep>
   <time name="dav">   84.92   85.25</time>
   <time name="total">   85.71   86.04</time>
   <energy>
    <i name="e_fr_energy">   -284.47505433 </i>
    <i name="e_wo_entrp">   -284.47505433 </i>
    <i name="e_0_energy">   -284.47505433 </i>
   </energy>
  </scstep>
  <scstep>
   <time name="dav">   75.11   75.85</time>
   <time name="total">   75.90   76.64</time>
   <energy>
    <i name="e_fr_energy">   -284.47505270 </i>
    <i name="e_wo_entrp">   -284.47505270 </i>
    <i name="e_0_energy">   -284.47505270 </i>
   </energy>
  </scstep>
  <scstep>
   <time name="dav">   70.38   70.68</time>
   <time name="total">   71.16   71.46</time>
   <energy>
    <i name="e_fr_energy">   -284.47506192 </i>
    <i name="e_wo_entrp">   -284.47506192 </i>
    <i name="e_0_energy">   -284.47506192 </i>
   </energy>
  </scstep>
  <scstep>
   <time name="dav">   71.18   71.35</time>
   <time name="total">   71.96   72.13</time>
   <energy>
    <i name="e_fr_energy">   -284.47506740 </i>
    <i name="e_wo_entrp">   -284.47506740 </i>
    <i name="e_0_energy">   -284.47506740 </i>
   </energy>
  </scstep>
  <scstep>
   <time name="dav">   61.10   61.19</time>
   <time name="total">   61.90   62.00</time>
   <energy>
    <i name="e_fr_energy">   -284.47506968 </i>
    <i name="e_wo_entrp">   -284.47506968 </i>
    <i name="e_0_energy">   -284.47506968 </i>
   </energy>
  </scstep>
  <scstep>
   <time name="dav">   44.77   44.84</time>
   <time name="total">   44.84   44.92</time>
   <energy>
    <i name="alphaZ">   1042.26270738 </i>
    <i name="ewald"> -30160.89224036 </i>
    <i name="hartreedc"> -12888.80906473 </i>
    <i name="XCdc">   1197.36002090 </i>
    <i name="pawpsdc">  43280.44433895 </i>
    <i name="pawaedc"> -42504.30150077 </i>
    <i name="eentropy">      0.00000000 </i>
    <i name="bandstr">  -3894.05728139 </i>
    <i name="atom">  43643.51795008 </i>
    <i name="e_fr_energy">   -284.47506994 </i>
    <i name="e_wo_entrp">   -284.47506994 </i>
    <i name="e_0_energy">   -284.47506994 </i>
   </energy>
  </scstep>
  <structure>
   <crystal>
    <varray name="basis" >
     <v>      11.24655828      -0.00510821      -0.01245849 </v>
     <v>      -0.00433826       9.56403815      -0.00780153 </v>
     <v>      -0.01245901      -0.00917831      11.25417192 </v>
    </varray>
    <i name="volume">   1210.52446650 </i>
    <varray name="rec_basis" >
     <v>       0.08891622       0.00004041       0.00009847 </v>
     <v>       0.00004759       0.10455844       0.00008533 </v>
     <v>       0.00009846       0.00007253       0.08885611 </v>
    </varray>
   </crystal>
   <varray name="positions" >
    <v>       0.13604296       0.99890529       0.19519686 </v>
    <v>       0.88203938      -0.00103046       0.44699327 </v>
    <v>       0.12462262       0.00068251       0.67825079 </v>
    <v>       0.37615645      -0.00070767       0.68428998 </v>
    <v>       0.61634914       0.99709145       0.45234241 </v>
    <v>       0.60908874       0.00101348       0.18874728 </v>
    <v>       0.88152012      -0.00014118       0.19425040 </v>
    <v>       0.14048670       0.99750612       0.93523512 </v>
    <v>       0.61065283       0.00354335       0.92295224 </v>
    <v>       0.87594130       0.00145587       0.92272653 </v>
    <v>       0.00511341       0.31456327       0.06409524 </v>
    <v>       0.25349811       0.70759412       0.06416062 </v>
    <v>       0.25143718       0.29315667       0.31738114 </v>
    <v>       0.49282631       0.70417269       0.31627042 </v>
    <v>       0.49351758       0.29598703       0.06276512 </v>
    <v>       0.74836870       0.67978435       0.06220306 </v>
    <v>       0.74965613       0.31463991       0.31755054 </v>
    <v>       0.00588747       0.70392369       0.31828946 </v>
    <v>       0.00360625       0.29287318       0.56220099 </v>
    <v>       0.25037529       0.70703023       0.55980805 </v>
    <v>       0.25223335       0.29747188       0.80944019 </v>
    <v>       0.49662221       0.70580240       0.80907896 </v>
    <v>       0.49617172       0.29471673       0.56325825 </v>
    <v>       0.74998947       0.70756252       0.56553705 </v>
    <v>       0.74860905       0.29598989       0.80590291 </v>
    <v>       0.00245421       0.69825591       0.80660736 </v>
    <v>       0.24716463       0.32773419       0.06017529 </v>
    <v>      -0.00368126       0.67264664       0.06223567 </v>
    <v>       0.50609757       0.32731585       0.31032540 </v>
    <v>       0.24896678       0.67177264       0.31037978 </v>
    <v>       0.75142778       0.32661034       0.06378798 </v>
    <v>       0.50508924       0.67328139       0.06359074 </v>
    <v>       0.99457085       0.32736475       0.30784041 </v>
    <v>       0.75021091       0.67203589       0.30885906 </v>
    <v>       0.25065623       0.32931283       0.56623858 </v>
    <v>      -0.00201005       0.67155393       0.56333780 </v>
    <v>       0.50227796       0.32778330       0.81564571 </v>
    <v>       0.24721262       0.67092865       0.81545190 </v>
    <v>       0.74924153       0.32792029       0.56082246 </v>
    <v>       0.50268330       0.67123901       0.56134434 </v>
    <v>       0.99836463       0.32742294       0.81789206 </v>
    <v>       0.75148204       0.67369477       0.81776443 </v>
    <v>       0.51832271       0.07736851       0.06122422 </v>
    <v>       0.23490258       0.92057842       0.05898995 </v>
    <v>       0.24440467       0.07543955       0.30606381 </v>
    <v>      -0.00972485       0.92246387       0.30282322 </v>
    <v>       0.99344934       0.06576337       0.05839901 </v>
[...]
       <r>    8.3354    0.0000 </r>
       <r>    8.3654    0.0000 </r>
       <r>    8.3879    0.0000 </r>
       <r>    8.5042    0.0000 </r>
       <r>    8.5334    0.0000 </r>
       <r>    8.5697    0.0000 </r>
       <r>    8.5922    0.0000 </r>
       <r>    9.7818    0.0000 </r>
       <r>    9.8926    0.0000 </r>
       <r>   10.0387    0.0000 </r>
       <r>   10.1887    0.0000 </r>
      </set>
     </set>
    </set>
   </array>
  </eigenvalues>
  <separator name="orbital magnetization" >
   <v name="MAGDIPOLOUT">      0.00000000      0.00000000      0.00000000</v>
  </separator>
  <dos>
   <i name="efermi">      3.94494483 </i>
   <total>
    <array>
     <dimension dim="1">gridpoints</dimension>
     <dimension dim="2">spin</dimension>
     <field>energy</field>
     <field>total</field>
     <field>integrated</field>
     <set>
      <set comment="spin 1">
       <r>   -42.2238     0.0000     0.0000 </r>
       <r>   -42.0408     0.0000     0.0000 </r>
       <r>   -41.8578     0.0000     0.0000 </r>
       <r>   -41.6747     0.0000     0.0000 </r>
       <r>   -41.4917     0.0000     0.0000 </r>
       <r>   -41.3087     0.0000     0.0000 </r>
       <r>   -41.1256     0.0000     0.0000 </r>
       <r>   -40.9426     0.0000     0.0000 </r>
       <r>   -40.7596     0.0000     0.0000 </r>
       <r>   -40.5766     0.0000     0.0000 </r>
       <r>   -40.3935     0.0000     0.0000 </r>
       <r>   -40.2105     0.0000     0.0000 </r>
       <r>   -40.0275     0.0000     0.0000 </r>
       <r>   -39.8445     0.0000     0.0000 </r>
       <r>   -39.6614     0.0000     2.0000 </r>
       <r>   -39.4784     0.0000     2.0000 </r>
       <r>   -39.2954     0.0000     6.0000 </r>
       <r>   -39.1123     0.0000     8.0000 </r>
       <r>   -38.9293     0.0000     8.0000 </r>
       <r>   -38.7463     0.0000     8.0000 </r>
       <r>   -38.5633     0.0000     8.0000 </r>
       <r>   -38.3802     0.0000     8.0000 </r>
       <r>   -38.1972     0.0000     8.0000 </r>
       <r>   -38.0142     0.0000     8.0000 </r>
       <r>   -37.8311     0.0000     8.0000 </r>
       <r>   -37.6481     0.0000     8.0000 </r>
       <r>   -37.4651     0.0000     8.0000 </r>
       <r>   -37.2821     0.0000     8.0000 </r>
       <r>   -37.0990     0.0000     8.0000 </r>
       <r>   -36.9160     0.0000     8.0000 </r>
       <r>   -36.7330     0.0000     8.0000 </r>
       <r>   -36.5500     0.0000     8.0000 </r>
       <r>   -36.3669     0.0000     8.0000 </r>
       <r>   -36.1839     0.0000     8.0000 </r>
       <r>   -36.0009     0.0000     8.0000 </r>
       <r>   -35.8178     0.0000     8.0000 </r>
       <r>   -35.6348     0.0000     8.0000 </r>
       <r>   -35.4518     0.0000     8.0000 </r>
       <r>   -35.2688     0.0000     8.0000 </r>
       <r>   -35.0857     0.0000     8.0000 </r>
       <r>   -34.9027     0.0000     8.0000 </r>
       <r>   -34.7197     0.0000     8.0000 </r>
       <r>   -34.5366     0.0000     8.0000 </r>
       <r>   -34.3536     0.0000     8.0000 </r>
       <r>   -34.1706     0.0000     8.0000 </r>
       <r>   -33.9876     0.0000     8.0000 </r>
       <r>   -33.8045     0.0000     8.0000 </r>
       <r>   -33.6215     0.0000     8.0000 </r>
       <r>   -33.4385     0.0000     8.0000 </r>
       <r>   -33.2555     0.0000     8.0000 </r>
       <r>   -33.0724     0.0000     8.0000 </r>
       <r>   -32.8894     0.0000     8.0000 </r>
       <r>   -32.7064     0.0000     8.0000 </r>
       <r>   -32.5233     0.0000     8.0000 </r>
       <r>   -32.3403     0.0000     8.0000 </r>
       <r>   -32.1573     0.0000     8.0000 </r>
       <r>   -31.9743     0.0000     8.0000 </r>
       <r>   -31.7912     0.0000     8.0000 </r>
       <r>   -31.6082     0.0000     8.0000 </r>
       <r>   -31.4252     0.0000     8.0000 </r>
       <r>   -31.2421     0.0000     8.0000 </r>
       <r>   -31.0591     0.0000     8.0000 </r>
       <r>   -30.8761     0.0000     8.0000 </r>
       <r>   -30.6931     0.0000     8.0000 </r>
       <r>   -30.5100     0.0000     8.0000 </r>
       <r>   -30.3270     0.0000     8.0000 </r>
       <r>   -30.1440     0.0000     8.0000 </r>
       <r>   -29.9610     0.0000     8.0000 </r>
       <r>   -29.7779     0.0000     8.0000 </r>
       <r>   -29.5949     0.0000     8.0000 </r>
       <r>   -29.4119     0.0000     8.0000 </r>
       <r>   -29.2288     0.0000     8.0000 </r>
       <r>   -29.0458     0.0000     8.0000 </r>
       <r>   -28.8628     0.0000     8.0000 </r>
       <r>   -28.6798     0.0000     8.0000 </r>
       <r>   -28.4967     0.0000     8.0000 </r>
       <r>   -28.3137     0.0000     8.0000 </r>
       <r>   -28.1307     0.0000     8.0000 </r>
       <r>   -27.9476     0.0000     8.0000 </r>
       <r>   -27.7646     0.0000     8.0000 </r>
       <r>   -27.5816     0.0000     8.0000 </r>
       <r>   -27.3986     0.0000     8.0000 </r>
       <r>   -27.2155     0.0000     8.0000 </r>
       <r>   -27.0325     0.0000     8.0000 </r>
       <r>   -26.8495     0.0000     8.0000 </r>
       <r>   -26.6665     0.0000     8.0000 </r>
       <r>   -26.4834     0.0000     8.0000 </r>
       <r>   -26.3004     0.0000     8.0000 </r>
       <r>   -26.1174     0.0000     8.0000 </r>
       <r>   -25.9343     0.0000     8.0000 </r>
       <r>   -25.7513     0.0000     8.0000 </r>
       <r>   -25.5683     0.0000     8.0000 </r>
       <r>   -25.3853     0.0000     8.0000 </r>
       <r>   -25.2022     0.0000     8.0000 </r>
       <r>   -25.0192     0.0000     8.0000 </r>
       <r>   -24.8362     0.0000     8.0000 </r>
       <r>   -24.6531     0.0000     8.0000 </r>
       <r>   -24.4701     0.0000     8.0000 </r>
       <r>   -24.2871     0.0000     8.0000 </r>
       <r>   -24.1041     0.0000     8.0000 </r>
       <r>   -23.9210     0.0000     8.0000 </r>
       <r>   -23.7380     0.0000     8.0000 </r>
       <r>   -23.5550     0.0000     8.0000 </r>
       <r>   -23.3720     0.0000     8.0000 </r>
       <r>   -23.1889     0.0000     8.0000 </r>
       <r>   -23.0059     0.0000     8.0000 </r>
       <r>   -22.8229     0.0000     8.0000 </r>
       <r>   -22.6398     0.0000     8.0000 </r>
       <r>   -22.4568     0.0000     8.0000 </r>
       <r>   -22.2738     0.0000     8.0000 </r>
       <r>   -22.0908     0.0000     8.0000 </r>
       <r>   -21.9077     0.0000     8.0000 </r>
       <r>   -21.7247     0.0000     8.0000 </r>
       <r>   -21.5417     0.0000     8.0000 </r>
       <r>   -21.3586     0.0000     8.0000 </r>
       <r>   -21.1756     0.0000     8.0000 </r>
       <r>   -20.9926     0.0000     8.0000 </r>
       <r>   -20.8096     0.0000     8.0000 </r>
       <r>   -20.6265     0.0000     8.0000 </r>
       <r>   -20.4435     0.0000     8.0000 </r>
       <r>   -20.2605     0.0000     8.0000 </r>
       <r>   -20.0775     0.0000     8.0000 </r>
       <r>   -19.8944     0.0000     8.0000 </r>
       <r>   -19.7114     0.0000     8.0000 </r>
       <r>   -19.5284     0.0000     8.0000 </r>
       <r>   -19.3453     0.0000     8.0000 </r>
       <r>   -19.1623     0.0000    14.0000 </r>
       <r>   -18.9793     0.0000    68.0000 </r>
       <r>   -18.7963     0.0000   120.0000 </r>
       <r>   -18.6132     0.0000   148.0000 </r>
       <r>   -18.4302     0.0000   164.0000 </r>
       <r>   -18.2472     0.0000   168.0000 </r>
       <r>   -18.0641     0.0000   168.0000 </r>
       <r>   -17.8811     0.0000   168.0000 </r>
       <r>   -17.6981     0.0000   168.0000 </r>
       <r>   -17.5151     0.0000   168.0000 </r>
       <r>   -17.3320     0.0000   168.0000 </r>
       <r>   -17.1490     0.0000   168.0000 </r>
       <r>   -16.9660     0.0000   168.0000 </r>
       <r>   -16.7830     0.0000   168.0000 </r>
       <r>   -16.5999     0.0000   168.0000 </r>
       <r>   -16.4169     0.0000   168.0000 </r>
       <r>   -16.2339     0.0000   168.0000 </r>
       <r>   -16.0508     0.0000   168.0000 </r>
       <r>   -15.8678     0.0000   168.0000 </r>
       <r>   -15.6848     0.0000   168.0000 </r>
       <r>   -15.5018     0.0000   168.0000 </r>
       <r>   -15.3187     0.0000   168.0000 </r>
       <r>   -15.1357     0.0000   168.0000 </r>
       <r>   -14.9527     0.0000   168.0000 </r>
       <r>   -14.7696     0.0000   168.0000 </r>
       <r>   -14.5866     0.0000   168.0000 </r>
       <r>   -14.4036     0.0000   168.0000 </r>
       <r>   -14.2206     0.0000   168.0000 </r>
       <r>   -14.0375     0.0000   168.0000 </r>
       <r>   -13.8545     0.0000   168.0000 </r>
       <r>   -13.6715     0.0000   170.0000 </r>
       <r>   -13.4885     0.0000   174.0000 </r>
       <r>   -13.3054     0.0000   178.0000 </r>
       <r>   -13.1224     0.0000   186.0000 </r>
       <r>   -12.9394     0.0000   188.0000 </r>
       <r>   -12.7563     0.0000   194.0000 </r>
       <r>   -12.5733     0.0000   196.0000 </r>
       <r>   -12.3903     0.0000   198.0000 </r>
       <r>   -12.2073     0.0000   200.0000 </r>
       <r>   -12.0242     0.0000   200.0000 </r>
       <r>   -11.8412     0.0000   200.0000 </r>
       <r>   -11.6582     0.0000   200.0000 </r>
       <r>   -11.4751     0.0000   200.0000 </r>
       <r>   -11.2921     0.0000   200.0000 </r>
       <r>   -11.1091     0.0000   200.0000 </r>
       <r>   -10.9261     0.0000   200.0000 </r>
       <r>   -10.7430     0.0000   200.0000 </r>
       <r>   -10.5600     0.0000   200.0000 </r>
       <r>   -10.3770     0.0000   200.0000 </r>
       <r>   -10.1940     0.0000   200.0000 </r>
       <r>   -10.0109     0.0000   200.0000 </r>
       <r>    -9.8279     0.0000   200.0000 </r>
       <r>    -9.6449     3.0978   200.0242 </r>
       <r>    -9.4618     0.0000   202.0000 </r>
       <r>    -9.2788     8.4782   202.0488 </r>
       <r>    -9.0958     3.6758   204.0730 </r>
       <r>    -8.9128    19.7924   206.4793 </r>
       <r>    -8.7297    15.2624   210.3039 </r>
       <r>    -8.5467    23.6676   213.9762 </r>
       <r>    -8.3637    25.6799   216.2213 </r>
       <r>    -8.1806    31.9003   222.3243 </r>
       <r>    -7.9976    15.7894   227.1140 </r>
       <r>    -7.8146    28.8345   230.3272 </r>
       <r>    -7.6316     0.0000   232.0000 </r>
       <r>    -7.4485     0.0000   232.0000 </r>
       <r>    -7.2655     0.0000   232.0000 </r>
       <r>    -7.0825     0.0000   232.0000 </r>
       <r>    -6.8995     0.0000   232.0000 </r>
       <r>    -6.7164     0.0000   232.0000 </r>
       <r>    -6.5334    12.5844   232.5285 </r>
       <r>    -6.3504    11.7567   236.8193 </r>
       <r>    -6.1673    14.0612   240.0678 </r>
       <r>    -5.9843    24.6173   243.7988 </r>
       <r>    -5.8013    27.5649   248.5523 </r>
       <r>    -5.6183    14.4581   251.9019 </r>
       <r>    -5.4352    13.8366   254.7838 </r>
       <r>    -5.2522     4.7731   256.0979 </r>
       <r>    -5.0692    15.3409   258.1279 </r>
       <r>    -4.8861     8.0844   259.6737 </r>
       <r>    -4.7031     6.4090   260.9396 </r>
       <r>    -4.5201     8.9579   262.4894 </r>
       <r>    -4.3371     2.9940   263.5047 </r>
       <r>    -4.1540     1.3225   263.8994 </r>
       <r>    -3.9710     0.0091   264.0000 </r>
       <r>    -3.7880     0.0000   264.0000 </r>
       <r>    -3.6050     0.0000   264.0000 </r>
       <r>    -3.4219     0.0000   264.0000 </r>
       <r>    -3.2389     0.0000   264.0000 </r>
       <r>    -3.0559     0.0000   264.0000 </r>
       <r>    -2.8728     0.0000   264.0000 </r>
       <r>    -2.6898     0.0000   264.0000 </r>
       <r>    -2.5068     0.0000   264.0000 </r>
       <r>    -2.3238     0.0000   264.0000 </r>
       <r>    -2.1407     0.0000   264.0000 </r>
       <r>    -1.9577     0.0000   264.0000 </r>
       <r>    -1.7747     0.0000   264.0000 </r>
       <r>    -1.5916     0.0000   264.0000 </r>
       <r>    -1.4086     9.1282   264.7269 </r>
       <r>    -1.2256     8.8245   266.2079 </r>
       <r>    -1.0426    14.8323   267.9729 </r>
       <r>    -0.8595    11.3262   270.7709 </r>
       <r>    -0.6765    21.1218   274.0185 </r>
       <r>    -0.4935    37.9548   279.0102 </r>
       <r>    -0.3105    29.0651   285.2346 </r>
       <r>    -0.1274    45.2514   291.4916 </r>
       <r>     0.0556    38.1016   298.6174 </r>
       <r>     0.2386    25.0640   305.5779 </r>
       <r>     0.4217    33.0684   311.6680 </r>
       <r>     0.6047    42.2199   319.2067 </r>
       <r>     0.7877    63.2878   326.0376 </r>
       <r>     0.9707    52.5305   334.4393 </r>
       <r>     1.1538    42.8892   342.6895 </r>
       <r>     1.3368    38.6925   350.5546 </r>
       <r>     1.5198    37.8088   359.6078 </r>
       <r>     1.7029    38.9133   367.4217 </r>
       <r>     1.8859    46.6323   375.5921 </r>
       <r>     2.0689    55.1001   385.1362 </r>
       <r>     2.2519    63.8895   395.3977 </r>
       <r>     2.4350    49.5067   406.2532 </r>
       <r>     2.6180    63.0596   417.0456 </r>
       <r>     2.8010    65.3657   428.1694 </r>
       <r>     2.9840    41.5014   437.2744 </r>
       <r>     3.1671    38.4298   444.3759 </r>
       <r>     3.3501    23.2643   450.3977 </r>
       <r>     3.5331    15.1876   453.9861 </r>
       <r>     3.7162     4.2407   455.7366 </r>
       <r>     3.8992     0.0000   456.0000 </r>
       <r>     4.0822     0.0000   456.0000 </r>
       <r>     4.2652     0.0000   456.0000 </r>
       <r>     4.4483     0.0000   456.0000 </r>
       <r>     4.6313     0.0000   456.0000 </r>
       <r>     4.8143     0.0687   456.0006 </r>
       <r>     4.9974     4.4771   456.3455 </r>
       <r>     5.1804     9.5657   457.7953 </r>
       <r>     5.3634    10.2353   459.6184 </r>
       <r>     5.5464    15.5946   462.6324 </r>
       <r>     5.7295    15.6542   466.0220 </r>
       <r>     5.9125    13.6093   468.5950 </r>
       <r>     6.0955    14.2634   471.1336 </r>
       <r>     6.2785    15.7768   473.8766 </r>
       <r>     6.4616    17.3830   476.9048 </r>
       <r>     6.6446    21.3003   480.3927 </r>
       <r>     6.8276    20.2280   484.3565 </r>
       <r>     7.0107    25.4244   488.8125 </r>
       <r>     7.1937    29.9341   494.2802 </r>
       <r>     7.3767    26.1230   500.0148 </r>
       <r>     7.5597    27.0990   505.7075 </r>
       <r>     7.7428    28.8005   511.3067 </r>
       <r>     7.9258    27.1984   516.4633 </r>
       <r>     8.1088    32.8763   521.8405 </r>
       <r>     8.2919    32.0859   527.7043 </r>
       <r>     8.4749    35.6525   534.0573 </r>
       <r>     8.6579    31.1115   540.3641 </r>
       <r>     8.8409    18.9448   544.8878 </r>
       <r>     9.0240    18.6103   548.0606 </r>
       <r>     9.2070    14.0210   551.0354 </r>
       <r>     9.3900     5.4766   552.7357 </r>
       <r>     9.5730    10.4928   554.6616 </r>
       <r>     9.7561    12.8970   557.0059 </r>
       <r>     9.9391     8.2830   559.2231 </r>
       <r>    10.1221     0.7244   559.9839 </r>
       <r>    10.3052     0.0000   560.0000 </r>
       <r>    10.4882     0.0000   560.0000 </r>
       <r>    10.6712     0.0000   560.0000 </r>
       <r>    10.8542     0.0000   560.0000 </r>
       <r>    11.0373     0.0000   560.0000 </r>
       <r>    11.2203     0.0000   560.0000 </r>
       <r>    11.4033     0.0000   560.0000 </r>
       <r>    11.5864     0.0000   560.0000 </r>
       <r>    11.7694     0.0000   560.0000 </r>
       <r>    11.9524     0.0000   560.0000 </r>
       <r>    12.1354     0.0000   560.0000 </r>
       <r>    12.3185     0.0000   560.0000 </r>
       <r>    12.5015     0.0000   560.0000 </r>
       <r>    12.6845     0.0000   560.0000 </r>
      </set>
     </set>
    </array>
   </total>
  </dos>
 </calculation>
 <structure name="finalpos" >
  <crystal>
   <varray name="basis" >
    <v>      11.31162664       0.00246492       0.08499050 </v>
    <v>       0.00201204       9.58339129      -0.00293552 </v>
    <v>       0.08580559      -0.00361204      11.28826346 </v>
   </varray>
   <i name="volume">   1223.61995879 </i>
   <varray name="rec_basis" >
    <v>       0.08840967      -0.00001877      -0.00067204 </v>
    <v>      -0.00002299       0.10434721       0.00003356 </v>
    <v>      -0.00066565       0.00002728       0.08859265 </v>
   </varray>
  </crystal>
  <varray name="positions" >
   <v>       0.17797279       0.94931122       0.24370237 </v>
   <v>       0.92746284      -0.04390260       0.49933519 </v>
   <v>       0.15747851       0.02763432       0.66169465 </v>
   <v>       0.42627224      -0.03295661       0.62737309 </v>
   <v>       0.64087578       0.00332646       0.42767114 </v>
   <v>       0.62332526      -0.00253194       0.16723647 </v>
   <v>       0.88500016       0.01397461       0.19906225 </v>
   <v>       0.11376247       0.00184662       0.95107557 </v>
   <v>       0.56602922       0.05764576       0.87690328 </v>
   <v>       0.85395445      -0.00128824       0.93603688 </v>
   <v>      -0.00207029       0.31949352       0.06371348 </v>
   <v>       0.24136569       0.69509498       0.06485382 </v>
   <v>       0.24883763       0.28499481       0.31950678 </v>
   <v>       0.49674319       0.69547635       0.31002445 </v>
   <v>       0.49663567       0.31413659       0.06457326 </v>
   <v>       0.74813137       0.68435634       0.06433303 </v>
   <v>       0.74772108       0.32233128       0.31129818 </v>
   <v>      -0.00179324       0.68941875       0.31464519 </v>
   <v>       0.00427046       0.29172374       0.56501510 </v>
   <v>       0.24927912       0.70478404       0.56658330 </v>
   <v>       0.23946674       0.30520472       0.81619993 </v>
   <v>       0.49040502       0.70428415       0.80641253 </v>
   <v>       0.50182488       0.29871120       0.55573113 </v>
   <v>       0.74955570       0.69816403       0.55755974 </v>
   <v>       0.74775716       0.31947357       0.81148809 </v>
   <v>      -0.00580954       0.68983757       0.81572599 </v>
   <v>       0.23956996       0.32910195       0.06379061 </v>
   <v>      -0.00293541       0.63134949       0.06998393 </v>
   <v>       0.49615729       0.35225200       0.30693236 </v>
   <v>       0.24902593       0.69488645       0.31487351 </v>
   <v>       0.73942766       0.37213730       0.05964261 </v>
   <v>       0.50326186       0.69049023       0.06448225 </v>
   <v>       0.98634487       0.28948297       0.30382798 </v>
   <v>       0.75306978       0.63230494       0.31585055 </v>
   <v>       0.24588601       0.33711863       0.56874877 </v>
   <v>      -0.00223258       0.69283353       0.56687336 </v>
   <v>       0.49346736       0.30277706       0.81118710 </v>
   <v>       0.24644198       0.65345760       0.82044890 </v>
   <v>       0.74529798       0.33734995       0.55902968 </v>
   <v>       0.50170992       0.65736579       0.56382684 </v>
   <v>       0.98674356       0.35836394       0.81069572 </v>
   <v>       0.74769431       0.68212338       0.82098579 </v>
   <v>       0.53580521       0.10075761       0.04773579 </v>
   <v>       0.19835015       0.90176324       0.07341051 </v>
   <v>       0.26223467       0.08193069       0.31779841 </v>
   <v>      -0.01309522       0.90346666       0.30201349 </v>
   <v>       0.97009330       0.09342736       0.04857444 </v>
   <v>       0.76886226       0.91458546       0.08200928 </v>
   <v>       0.73467388       0.09475534       0.28385414 </v>
   <v>       0.55319085       0.90076085       0.30411746 </v>
   <v>       0.52493470       0.08890427       0.53676537 </v>
   <v>       0.27136913       0.90843840       0.59597850 </v>
   <v>       0.19688111       0.09799141       0.82116983 </v>
   <v>      -0.01148729       0.89939084       0.86392178 </v>
   <v>       0.01535126       0.08491568       0.58297246 </v>
   <v>       0.76254048       0.90467700       0.51425658 </v>
   <v>       0.73575274       0.10489023       0.84957596 </v>
   <v>       0.49115794       0.91512453       0.78577115 </v>
  </varray>
 </structure>
</modeling>
