<?xml version="1.0" encoding="ISO-8859-1"?>
<modeling>
 <generator>
  <i name="program" type="string">vasp </i>
  <i name="version" type="string">5.4.4.18Apr17-6-g9f103f2a35  </i>
  <i name="subversion" type="string">(build Jul 31 2017 11:33:29) complex            parallel </i>
  <i name="platform" type="string">LinuxIFC </i>
  <i name="date" type="string">2021 09 22 </i>
  <i name="time" type="string">07:52:54 </i>
 </generator>
 <incar>
  <i type="string" name="SYSTEM"> La2O2S</i>
  <i type="string" name="PREC">normal</i>
  <i type="int" name="NELMIN">     4</i>
  <i type="int" name="IBRION">     2</i>
  <i type="int" name="NFREE">    10</i>
  <i name="EDIFF">      0.00000100</i>
  <i name="EDIFFG">     -0.01000000</i>
  <i type="int" name="NSW">   200</i>
  <i type="int" name="ISIF">     3</i>
  <i name="ENCUT">    600.00000000</i>
  <i name="ENAUG">    900.00000000</i>
  <i type="int" name="ISMEAR">    -5</i>
  <i type="logical" name="LWAVE"> F  </i>
  <i type="logical" name="LCHARG"> F  </i>
  <v type="int" name="KPOINT_BSE">    -1     0     0     0</v>
 </incar>
 <structure name="primitive_cell" >
  <crystal>
   <varray name="basis" >
    <v>      11.17850000       0.00000000       0.00000000 </v>
    <v>       0.00000000       9.57460000       0.00000000 </v>
    <v>       0.00000000       0.00000000      11.18240000 </v>
   </varray>
   <i name="volume">   1196.84853820 </i>
   <varray name="rec_basis" >
    <v>       0.08945744       0.00000000       0.00000000 </v>
    <v>       0.00000000       0.10444301       0.00000000 </v>
    <v>       0.00000000       0.00000000       0.08942624 </v>
   </varray>
  </crystal>
  <varray name="positions" >
   <v>       0.12461000      -0.00016000       0.18687000 </v>
   <v>      -0.00013000       0.07798000       0.06246000 </v>
   <v>       0.24987000      -0.07798000       0.06246000 </v>
   <v>       0.00013000      -0.07798000       0.31246000 </v>
   <v>       0.25013000       0.07798000       0.31246000 </v>
   <v>       0.12539000      -0.00016000      -0.06313000 </v>
   <v>       0.00013000       0.29519000       0.06281000 </v>
   <v>       0.25013000      -0.29519000       0.06281000 </v>
   <v>      -0.00013000      -0.29519000       0.31282000 </v>
   <v>       0.24987000       0.29519000       0.31282000 </v>
   <v>       0.00005000      -0.32677000       0.06286000 </v>
   <v>       0.25005000       0.32677000       0.06286000 </v>
   <v>      -0.00005000       0.32677000       0.31286000 </v>
   <v>       0.24995000      -0.32677000       0.31286000 </v>
   <v>      -0.12461000       0.00017000       0.43687000 </v>
   <v>      -0.12461000       0.00017000      -0.06313000 </v>
   <v>       0.37539000       0.00017000      -0.06313000 </v>
   <v>       0.00013000      -0.07798000      -0.18754000 </v>
   <v>      -0.25013000      -0.07798000       0.06246000 </v>
   <v>      -0.24987000       0.07798000       0.31246000 </v>
   <v>       0.25013000       0.07798000      -0.18754000 </v>
   <v>       0.49987000       0.07798000       0.06246000 </v>
   <v>      -0.00013000       0.07798000      -0.43754000 </v>
   <v>      -0.49987000      -0.07798000       0.31246000 </v>
   <v>       0.24987000      -0.07798000      -0.43754000 </v>
   <v>      -0.00013000      -0.29519000      -0.18718000 </v>
   <v>      -0.24987000      -0.29519000       0.06281000 </v>
   <v>       0.24987000       0.29519000      -0.18718000 </v>
   <v>      -0.25013000       0.29519000       0.31282000 </v>
   <v>      -0.49987000       0.29519000       0.06281000 </v>
   <v>       0.49987000      -0.29519000       0.31282000 </v>
   <v>       0.00013000       0.29519000      -0.43719000 </v>
   <v>       0.25013000      -0.29519000      -0.43719000 </v>
   <v>      -0.00005000       0.32677000      -0.18714000 </v>
   <v>       0.24995000      -0.32677000      -0.18714000 </v>
   <v>      -0.24995000       0.32677000       0.06286000 </v>
   <v>      -0.25005000      -0.32677000       0.31286000 </v>
   <v>      -0.49995000      -0.32677000       0.06286000 </v>
   <v>       0.49995000       0.32677000       0.31286000 </v>
   <v>       0.00005000      -0.32677000      -0.43714000 </v>
   <v>       0.25005000       0.32677000      -0.43714000 </v>
   <v>      -0.37539000      -0.00016000       0.18687000 </v>
   <v>       0.12461000      -0.00016000      -0.31313000 </v>
   <v>      -0.24987000       0.07798000      -0.18754000 </v>
   <v>      -0.49987000      -0.07798000      -0.18754000 </v>
   <v>      -0.25013000      -0.07798000      -0.43754000 </v>
   <v>       0.49987000       0.07798000      -0.43754000 </v>
   <v>      -0.37461000      -0.00016000       0.43687000 </v>
   <v>      -0.37461000      -0.00016000      -0.06313000 </v>
   <v>       0.37461000       0.00017000      -0.31313000 </v>
   <v>      -0.12539000       0.00017000      -0.31313000 </v>
   <v>      -0.25013000       0.29519000      -0.18718000 </v>
   <v>       0.49987000      -0.29519000      -0.18718000 </v>
   <v>      -0.24987000      -0.29519000      -0.43719000 </v>
   <v>      -0.49987000       0.29519000      -0.43719000 </v>
   <v>      -0.25005000      -0.32677000      -0.18714000 </v>
   <v>       0.49995000       0.32677000      -0.18714000 </v>
   <v>      -0.24995000       0.32677000      -0.43714000 </v>
   <v>      -0.49995000      -0.32677000      -0.43714000 </v>
   <v>      -0.37539000      -0.00016000      -0.31313000 </v>
  </varray>
 </structure>
 <varray name="primitive_index" >
  <v type="int" >        1 </v>
  <v type="int" >       49 </v>
  <v type="int" >       46 </v>
  <v type="int" >       48 </v>
  <v type="int" >       47 </v>
  <v type="int" >        4 </v>
  <v type="int" >       13 </v>
  <v type="int" >       14 </v>
  <v type="int" >       20 </v>
  <v type="int" >       15 </v>
  <v type="int" >       30 </v>
  <v type="int" >       29 </v>
  <v type="int" >       35 </v>
  <v type="int" >       32 </v>
  <v type="int" >        2 </v>
  <v type="int" >       11 </v>
  <v type="int" >        5 </v>
  <v type="int" >       56 </v>
  <v type="int" >       50 </v>
  <v type="int" >       51 </v>
  <v type="int" >       55 </v>
  <v type="int" >       45 </v>
  <v type="int" >       57 </v>
  <v type="int" >       52 </v>
  <v type="int" >       54 </v>
  <v type="int" >       28 </v>
  <v type="int" >       18 </v>
  <v type="int" >       23 </v>
  <v type="int" >       19 </v>
  <v type="int" >       17 </v>
  <v type="int" >       16 </v>
  <v type="int" >       21 </v>
  <v type="int" >       22 </v>
  <v type="int" >       43 </v>
  <v type="int" >       40 </v>
  <v type="int" >       33 </v>
  <v type="int" >       36 </v>
  <v type="int" >       34 </v>
  <v type="int" >       31 </v>
  <v type="int" >       38 </v>
  <v type="int" >       37 </v>
  <v type="int" >        3 </v>
  <v type="int" >        6 </v>
  <v type="int" >       59 </v>
  <v type="int" >       60 </v>
  <v type="int" >       58 </v>
  <v type="int" >       53 </v>
  <v type="int" >        9 </v>
  <v type="int" >       10 </v>
  <v type="int" >        7 </v>
  <v type="int" >       12 </v>
  <v type="int" >       27 </v>
  <v type="int" >       24 </v>
  <v type="int" >       26 </v>
  <v type="int" >       25 </v>
  <v type="int" >       44 </v>
  <v type="int" >       39 </v>
  <v type="int" >       41 </v>
  <v type="int" >       42 </v>
  <v type="int" >        8 </v>
 </varray>
 <kpoints>
  <generation param="Gamma">
   <v type="int" name="divisions">       2        2        2 </v>
   <v name="usershift">      0.00000000       0.00000000       0.00000000 </v>
   <v name="genvec1">      0.50000000       0.00000000       0.00000000 </v>
   <v name="genvec2">      0.00000000       0.50000000       0.00000000 </v>
   <v name="genvec3">      0.00000000       0.00000000       0.50000000 </v>
   <v name="shift">      0.00000000       0.00000000       0.00000000 </v>
  </generation>
  <varray name="kpointlist" >
   <v>       0.00000000       0.00000000       0.00000000 </v>
   <v>       0.50000000       0.00000000       0.00000000 </v>
   <v>       0.00000000       0.50000000       0.00000000 </v>
   <v>       0.50000000       0.50000000       0.00000000 </v>
   <v>       0.00000000       0.00000000       0.50000000 </v>
   <v>       0.50000000       0.00000000       0.50000000 </v>
   <v>       0.00000000       0.50000000       0.50000000 </v>
   <v>       0.50000000       0.50000000       0.50000000 </v>
  </varray>
  <varray name="weights" >
   <v>       0.12500000 </v>
   <v>       0.12500000 </v>
   <v>       0.12500000 </v>
   <v>       0.12500000 </v>
   <v>       0.12500000 </v>
   <v>       0.12500000 </v>
   <v>       0.12500000 </v>
   <v>       0.12500000 </v>
  </varray>
  <varray name="tetrahedronlist"  type="int" >
   <v type="int" >        2        1        2        4        5 </v>
   <v type="int" >        2        1        3        4        5 </v>
   <v type="int" >        2        3        4        5        7 </v>
   <v type="int" >        2        2        4        5        6 </v>
   <v type="int" >        2        4        5        6        8 </v>
   <v type="int" >        2        4        5        7        8 </v>
   <v type="int" >        2        1        2        3        6 </v>
   <v type="int" >        2        2        3        4        6 </v>
   <v type="int" >        2        3        4        6        8 </v>
   <v type="int" >        2        1        3        5        6 </v>
   <v type="int" >        2        3        5        6        7 </v>
   <v type="int" >        2        3        6        7        8 </v>
   <v type="int" >        2        2        3        4        7 </v>
   <v type="int" >        2        1        2        3        7 </v>
   <v type="int" >        2        1        2        5        7 </v>
   <v type="int" >        2        2        4        7        8 </v>
   <v type="int" >        2        2        6        7        8 </v>
   <v type="int" >        2        2        5        6        7 </v>
   <v type="int" >        2        1        3        4        8 </v>
   <v type="int" >        2        1        2        4        8 </v>
   <v type="int" >        2        1        2        6        8 </v>
   <v type="int" >        2        1        3        7        8 </v>
   <v type="int" >        2        1        5        7        8 </v>
   <v type="int" >        2        1        5        6        8 </v>
  </varray>
  <i name="volumeweight">      0.02083333 </i>
 </kpoints>
 <parameters>
  <separator name="general" >
   <i type="string" name="SYSTEM">La2O2S</i>
   <i type="logical" name="LCOMPAT"> F  </i>
  </separator>
  <separator name="electronic" >
   <i type="string" name="PREC">normal</i>
   <i name="ENMAX">    600.00000000</i>
   <i name="ENAUG">    900.00000000</i>
   <i name="EDIFF">      0.00000100</i>
   <i type="int" name="IALGO">    38</i>
   <i type="int" name="IWAVPR">    11</i>
   <i type="int" name="NBANDS">   280</i>
   <i name="NELECT">    464.00000000</i>
   <i type="int" name="TURBO">     0</i>
   <i type="int" name="IRESTART">     0</i>
   <i type="int" name="NREBOOT">     0</i>
   <i type="int" name="NMIN">     0</i>
   <i name="EREF">      0.00000000</i>
   <separator name="electronic smearing" >
    <i type="int" name="ISMEAR">    -5</i>
    <i name="SIGMA">      0.20000000</i>
    <i name="KSPACING">      0.50000000</i>
    <i type="logical" name="KGAMMA"> T  </i>
   </separator>
   <separator name="electronic projectors" >
    <i type="logical" name="LREAL"> F  </i>
    <v name="ROPT">      0.00000000      0.00000000      0.00000000      0.00000000      0.00000000</v>
    <i type="int" name="LMAXPAW">  -100</i>
    <i type="int" name="LMAXMIX">     2</i>
    <i type="logical" name="NLSPLINE"> F  </i>
   </separator>
   <separator name="electronic startup" >
    <i type="int" name="ISTART">     0</i>
    <i type="int" name="ICHARG">     2</i>
    <i type="int" name="INIWAV">     1</i>
   </separator>
   <separator name="electronic spin" >
    <i type="int" name="ISPIN">     1</i>
    <i type="logical" name="LNONCOLLINEAR"> F  </i>
    <v name="MAGMOM">      1.00000000      1.00000000      1.00000000      1.00000000      1.00000000      1.00000000      1.00000000      1.00000000      1.00000000      1.00000000      1.00000000      1.00000000      1.00000000      1.00000000      1.00000000      1.00000000      1.00000000      1.00000000      1.00000000      1.00000000
      1.00000000      1.00000000      1.00000000      1.00000000      1.00000000      1.00000000      1.00000000      1.00000000      1.00000000      1.00000000      1.00000000      1.00000000      1.00000000      1.00000000      1.00000000      1.00000000      1.00000000      1.00000000      1.00000000      1.00000000
      1.00000000      1.00000000      1.00000000      1.00000000      1.00000000      1.00000000      1.00000000      1.00000000      1.00000000      1.00000000      1.00000000      1.00000000      1.00000000      1.00000000      1.00000000      1.00000000      1.00000000      1.00000000      1.00000000      1.00000000
</v>
    <i name="NUPDOWN">     -1.00000000</i>
    <i type="logical" name="LSORBIT"> F  </i>
    <v name="SAXIS">      0.00000000      0.00000000      1.00000000</v>
    <i type="logical" name="LSPIRAL"> F  </i>
    <v name="QSPIRAL">      0.00000000      0.00000000      0.00000000</v>
    <i type="logical" name="LZEROZ"> F  </i>
   </separator>
   <separator name="electronic exchange-correlation" >
    <i type="logical" name="LASPH"> F  </i>
    <i type="logical" name="LMETAGGA"> F  </i>
   </separator>
   <separator name="electronic convergence" >
    <i type="int" name="NELM">    60</i>
    <i type="int" name="NELMDL">    -5</i>
    <i type="int" name="NELMIN">     4</i>
    <i name="ENINI">    600.00000000</i>
    <separator name="electronic convergence detail" >
     <i type="logical" name="LDIAG"> T  </i>
     <i type="logical" name="LSUBROT"> F  </i>
     <i name="WEIMIN">      0.00100000</i>
     <i name="EBREAK">      0.00000000</i>
     <i name="DEPER">      0.30000000</i>
     <i type="int" name="NRMM">     4</i>
     <i name="TIME">      0.40000000</i>
    </separator>
   </separator>
   <separator name="electronic mixer" >
    <i name="AMIX">      0.40000000</i>
    <i name="BMIX">      1.00000000</i>
    <i name="AMIN">      0.10000000</i>
    <i name="AMIX_MAG">      1.60000000</i>
    <i name="BMIX_MAG">      1.00000000</i>
    <separator name="electronic mixer details" >
     <i type="int" name="IMIX">     4</i>
     <i type="logical" name="MIXFIRST"> F  </i>
     <i type="int" name="MAXMIX">   -45</i>
     <i name="WC">    100.00000000</i>
     <i type="int" name="INIMIX">     1</i>
     <i type="int" name="MIXPRE">     1</i>
     <i type="int" name="MREMOVE">     5</i>
    </separator>
   </separator>
   <separator name="electronic dipolcorrection" >
    <i type="logical" name="LDIPOL"> F  </i>
    <i type="logical" name="LMONO"> F  </i>
    <i type="int" name="IDIPOL">     0</i>
    <i name="EPSILON">      1.00000000</i>
    <v name="DIPOL">   -100.00000000   -100.00000000   -100.00000000</v>
    <i name="EFIELD">      0.00000000</i>
   </separator>
  </separator>
  <separator name="grids" >
   <i type="int" name="NGX">    70</i>
   <i type="int" name="NGY">    60</i>
   <i type="int" name="NGZ">    70</i>
   <i type="int" name="NGXF">   140</i>
   <i type="int" name="NGYF">   120</i>
   <i type="int" name="NGZF">   140</i>
   <i type="logical" name="ADDGRID"> F  </i>
  </separator>
  <separator name="ionic" >
   <i type="int" name="NSW">   200</i>
   <i type="int" name="IBRION">     2</i>
   <i type="int" name="MDALGO">     0</i>
   <i type="int" name="ISIF">     3</i>
   <i name="PSTRESS">      0.00000000</i>
   <i name="EDIFFG">     -0.01000000</i>
   <i type="int" name="NFREE">    10</i>
   <i name="POTIM">      0.50000000</i>
   <i name="SMASS">     -3.00000000</i>
   <i name="SCALEE">      1.00000000</i>
  </separator>
  <separator name="ionic md" >
   <i name="TEBEG">      0.00010000</i>
   <i name="TEEND">      0.00010000</i>
   <i type="int" name="NBLOCK">     1</i>
   <i type="int" name="KBLOCK">   200</i>
   <i type="int" name="NPACO">   256</i>
   <i name="APACO">     16.00000000</i>
  </separator>
  <separator name="symmetry" >
   <i type="int" name="ISYM">     2</i>
   <i name="SYMPREC">      0.00001000</i>
  </separator>
  <separator name="dos" >
   <i type="int" name="LORBIT">     0</i>
   <v name="RWIGS">     -1.00000000     -1.00000000     -1.00000000     -1.00000000     -1.00000000</v>
   <i type="int" name="NEDOS">   301</i>
   <i name="EMIN">     10.00000000</i>
   <i name="EMAX">    -10.00000000</i>
   <i name="EFERMI">      0.00000000</i>
  </separator>
  <separator name="writing" >
   <i type="int" name="NWRITE">     2</i>
   <i type="logical" name="LWAVE"> F  </i>
   <i type="logical" name="LDOWNSAMPLE"> F  </i>
   <i type="logical" name="LCHARG"> F  </i>
   <i type="logical" name="LPARD"> F  </i>
   <i type="logical" name="LVTOT"> F  </i>
   <i type="logical" name="LVHAR"> F  </i>
   <i type="logical" name="LELF"> F  </i>
   <i type="logical" name="LOPTICS"> F  </i>
   <v name="STM">      0.00000000      0.00000000      0.00000000      0.00000000      0.00000000      0.00000000      0.00000000</v>
  </separator>
  <separator name="performance" >
   <i type="int" name="NPAR">    28</i>
   <i type="int" name="NSIM">     4</i>
   <i type="int" name="NBLK">    -1</i>
   <i type="logical" name="LPLANE"> T  </i>
   <i type="logical" name="LSCALAPACK"> T  </i>
   <i type="logical" name="LSCAAWARE"> F  </i>
   <i type="logical" name="LSCALU"> F  </i>
   <i type="logical" name="LASYNC"> F  </i>
   <i type="logical" name="LORBITALREAL"> F  </i>
  </separator>
  <separator name="miscellaneous" >
   <i type="int" name="IDIOT">     3</i>
   <i type="int" name="ISPECIAL">     0</i>
   <i type="logical" name="LMUSIC"> F  </i>
   <v name="POMASS">      7.01000000     24.30500000    208.98000000     32.06600000     16.00000000</v>
   <v name="DARWINR">      0.00000000      0.00000000      0.00000000      0.00000000      0.00000000</v>
   <v name="DARWINV">      1.00000000      1.00000000      1.00000000      1.00000000      1.00000000</v>
   <i type="logical" name="LCORR"> T  </i>
  </separator>
  <i type="logical" name="GGA_COMPAT"> T  </i>
  <i type="logical" name="LBERRY"> F  </i>
  <i type="int" name="ICORELEVEL">     0</i>
  <i type="logical" name="LDAU"> F  </i>
  <i type="int" name="I_CONSTRAINED_M">     0</i>
  <separator name="electronic exchange-correlation" >
   <i type="string" name="GGA">--</i>
   <i type="int" name="VOSKOWN">     0</i>
   <i type="logical" name="LHFCALC"> F  </i>
   <i type="string" name="PRECFOCK"></i>
   <i type="logical" name="LSYMGRAD"> F  </i>
   <i type="logical" name="LHFONE"> F  </i>
   <i type="logical" name="LRHFCALC"> F  </i>
   <i type="logical" name="LTHOMAS"> F  </i>
   <i type="logical" name="LMODELHF"> F  </i>
   <i name="ENCUT4O">     -1.00000000</i>
   <i type="int" name="EXXOEP">     0</i>
   <i type="int" name="FOURORBIT">     0</i>
   <i name="AEXX">      0.00000000</i>
   <i name="HFALPHA">      0.00000000</i>
   <i name="MCALPHA">      0.00000000</i>
   <i name="ALDAX">      1.00000000</i>
   <i name="AGGAX">      1.00000000</i>
   <i name="ALDAC">      1.00000000</i>
   <i name="AGGAC">      1.00000000</i>
   <i type="int" name="NKREDX">     1</i>
   <i type="int" name="NKREDY">     1</i>
   <i type="int" name="NKREDZ">     1</i>
   <i type="logical" name="SHIFTRED"> F  </i>
   <i type="logical" name="ODDONLY"> F  </i>
   <i type="logical" name="EVENONLY"> F  </i>
   <i type="int" name="LMAXFOCK">     0</i>
   <i type="int" name="NMAXFOCKAE">     0</i>
   <i type="logical" name="LFOCKAEDFT"> F  </i>
   <i name="HFSCREEN">      0.00000000</i>
   <i name="HFSCREENC">      0.00000000</i>
   <i type="int" name="NBANDSGWLOW">     0</i>
  </separator>
  <separator name="vdW DFT" >
   <i type="logical" name="LUSE_VDW"> F  </i>
   <i name="Zab_VDW">     -0.84910000</i>
   <i name="PARAM1">      0.12340000</i>
   <i name="PARAM2">      1.00000000</i>
   <i name="PARAM3">      0.00000000</i>
  </separator>
  <separator name="model GW" >
   <i type="int" name="MODEL_GW">     0</i>
   <i name="MODEL_EPS0">     11.96848538</i>
   <i name="MODEL_ALPHA">      1.00000000</i>
  </separator>
  <separator name="linear response parameters" >
   <i type="logical" name="LEPSILON"> F  </i>
   <i type="logical" name="LRPA"> F  </i>
   <i type="logical" name="LNABLA"> F  </i>
   <i type="logical" name="LVEL"> F  </i>
   <i type="int" name="KINTER">     0</i>
   <i name="CSHIFT">      0.10000000</i>
   <i name="OMEGAMAX">     -1.00000000</i>
   <i name="DEG_THRESHOLD">      0.00200000</i>
   <i name="RTIME">     -0.10000000</i>
   <i name="WPLASMAI">      0.00000000</i>
   <v name="DFIELD">      0.00000000      0.00000000      0.00000000</v>
   <v name="WPLASMA">      0.00000000      0.00000000      0.00000000      0.00000000      0.00000000      0.00000000      0.00000000      0.00000000      0.00000000</v>
  </separator>
  <separator name="orbital magnetization" >
   <i type="logical" name="NUCIND"> F  </i>
   <v name="MAGPOS">      0.00000000      0.00000000      0.00000000</v>
   <i type="logical" name="LNICSALL"> T  </i>
   <i type="logical" name="ORBITALMAG"> F  </i>
   <i type="logical" name="LMAGBLOCH"> F  </i>
   <i type="logical" name="LCHIMAG"> F  </i>
   <i type="logical" name="LGAUGE"> T  </i>
   <i type="int" name="MAGATOM">     0</i>
   <v name="MAGDIPOL">      0.00000000      0.00000000      0.00000000</v>
   <v name="AVECCONST">      0.00000000      0.00000000      0.00000000</v>
  </separator>
  <separator name="response functions" >
   <i type="logical" name="LADDER"> F  </i>
   <i type="logical" name="LRPAFORCE"> F  </i>
   <i type="logical" name="LFXC"> F  </i>
   <i type="logical" name="LHARTREE"> T  </i>
   <i type="int" name="IBSE">     0</i>
   <v type="int" name="KPOINT">    -1     0     0     0</v>
   <i type="logical" name="LTCTE"> F  </i>
   <i type="logical" name="LTETE"> F  </i>
   <i type="logical" name="LTRIPLET"> F  </i>
   <i type="logical" name="LFXCEPS"> F  </i>
   <i type="logical" name="LFXHEG"> F  </i>
   <i type="int" name="NATURALO">     2</i>
   <i type="logical" name="L2ORDER"> F  </i>
   <i type="logical" name="LMP2LT"> F  </i>
   <i type="logical" name="LUSEW"> F  </i>
   <i name="ENCUTGW">     -2.00000000</i>
   <i name="ENCUTGWSOFT">     -2.00000000</i>
   <i name="ENCUTLF">     -1.00000000</i>
   <i type="int" name="LMAXMP2">    -1</i>
   <i name="SCISSOR">      0.00000000</i>
   <i type="int" name="NOMEGA">     0</i>
   <i type="int" name="NOMEGAR">     0</i>
   <i type="int" name="NBANDSGW">    -1</i>
   <i type="int" name="NBANDSO">    -1</i>
   <i type="int" name="NBANDSV">    -1</i>
   <i type="int" name="NELM">     1</i>
   <i type="int" name="NELMHF">     1</i>
   <i type="int" name="DIM">     3</i>
   <i type="int" name="ANTIRES">     0</i>
   <i name="OMEGAMAX">    -30.00000000</i>
   <i name="OMEGAMIN">    -30.00000000</i>
   <i name="OMEGATL">   -200.00000000</i>
   <i type="int" name="OMEGAGRID">   140</i>
   <i name="CSHIFT">     -0.10000000</i>
   <i type="logical" name="SELFENERGY"> F  </i>
   <i type="logical" name="LSPECTRAL"> F  </i>
   <i type="logical" name="LSPECTRALGW"> F  </i>
   <i type="logical" name="LSINGLES"> F  </i>
   <i type="logical" name="LFERMIGW"> F  </i>
   <i type="logical" name="ODDONLYGW"> F  </i>
   <i type="logical" name="EVENONLYGW"> F  </i>
   <i type="int" name="NKREDLFX">     1</i>
   <i type="int" name="NKREDLFY">     1</i>
   <i type="int" name="NKREDLFZ">     1</i>
   <i type="int" name="MAXMEM">  2800</i>
   <i type="int" name="TELESCOPE">     0</i>
   <i type="int" name="TAUPAR">     1</i>
   <i type="int" name="OMEGAPAR">    -1</i>
   <i name="LAMBDA">      1.00000000</i>
  </separator>
  <separator name="External order field" >
   <i name="OFIELD_KAPPA">      0.00000000</i>
   <v name="OFIELD_K">      0.00000000      0.00000000      0.00000000</v>
   <i name="OFIELD_Q6_NEAR">      0.00000000</i>
   <i name="OFIELD_Q6_FAR">      0.00000000</i>
   <i name="OFIELD_A">      0.00000000</i>
  </separator>
 </parameters>
 <atominfo>
  <atoms>      60 </atoms>
  <types>       5 </types>
  <array name="atoms" >
   <dimension dim="1">ion</dimension>
   <field type="string">element</field>
   <field type="int">atomtype</field>
   <set>
    <rc><c>Li</c><c>   1</c></rc>
    <rc><c>Li</c><c>   1</c></rc>
    <rc><c>Li</c><c>   1</c></rc>
    <rc><c>Li</c><c>   1</c></rc>
    <rc><c>Li</c><c>   1</c></rc>
    <rc><c>Li</c><c>   1</c></rc>
    <rc><c>Li</c><c>   1</c></rc>
    <rc><c>Li</c><c>   1</c></rc>
    <rc><c>Mg</c><c>   2</c></rc>
    <rc><c>Mg</c><c>   2</c></rc>
    <rc><c>Mg</c><c>   2</c></rc>
    <rc><c>Mg</c><c>   2</c></rc>
    <rc><c>Bi</c><c>   3</c></rc>
    <rc><c>Bi</c><c>   3</c></rc>
    <rc><c>Bi</c><c>   3</c></rc>
    <rc><c>Bi</c><c>   3</c></rc>
    <rc><c>Bi</c><c>   3</c></rc>
    <rc><c>Bi</c><c>   3</c></rc>
    <rc><c>Bi</c><c>   3</c></rc>
    <rc><c>Bi</c><c>   3</c></rc>
    <rc><c>Bi</c><c>   3</c></rc>
    <rc><c>Bi</c><c>   3</c></rc>
    <rc><c>Bi</c><c>   3</c></rc>
    <rc><c>Bi</c><c>   3</c></rc>
    <rc><c>Bi</c><c>   3</c></rc>
    <rc><c>Bi</c><c>   3</c></rc>
    <rc><c>Bi</c><c>   3</c></rc>
    <rc><c>Bi</c><c>   3</c></rc>
    <rc><c>S </c><c>   4</c></rc>
    <rc><c>S </c><c>   4</c></rc>
    <rc><c>S </c><c>   4</c></rc>
    <rc><c>S </c><c>   4</c></rc>
    <rc><c>S </c><c>   4</c></rc>
    <rc><c>S </c><c>   4</c></rc>
    <rc><c>S </c><c>   4</c></rc>
    <rc><c>S </c><c>   4</c></rc>
    <rc><c>S </c><c>   4</c></rc>
    <rc><c>S </c><c>   4</c></rc>
    <rc><c>S </c><c>   4</c></rc>
    <rc><c>S </c><c>   4</c></rc>
    <rc><c>S </c><c>   4</c></rc>
    <rc><c>S </c><c>   4</c></rc>
    <rc><c>S </c><c>   4</c></rc>
    <rc><c>S </c><c>   4</c></rc>
    <rc><c>O </c><c>   5</c></rc>
    <rc><c>O </c><c>   5</c></rc>
    <rc><c>O </c><c>   5</c></rc>
    <rc><c>O </c><c>   5</c></rc>
    <rc><c>O </c><c>   5</c></rc>
    <rc><c>O </c><c>   5</c></rc>
    <rc><c>O </c><c>   5</c></rc>
    <rc><c>O </c><c>   5</c></rc>
    <rc><c>O </c><c>   5</c></rc>
    <rc><c>O </c><c>   5</c></rc>
    <rc><c>O </c><c>   5</c></rc>
    <rc><c>O </c><c>   5</c></rc>
    <rc><c>O </c><c>   5</c></rc>
    <rc><c>O </c><c>   5</c></rc>
    <rc><c>O </c><c>   5</c></rc>
    <rc><c>O </c><c>   5</c></rc>
   </set>
  </array>
  <array name="atomtypes" >
   <dimension dim="1">type</dimension>
   <field type="int">atomspertype</field>
   <field type="string">element</field>
   <field>mass</field>
   <field>valence</field>
   <field type="string">pseudopotential</field>
   <set>
    <rc><c>   8</c><c>Li</c><c>      7.01000000</c><c>      3.00000000</c><c>  PAW_PBE Li_sv 10Sep2004               </c></rc>
    <rc><c>   4</c><c>Mg</c><c>     24.30500000</c><c>      2.00000000</c><c>  PAW_PBE Mg 13Apr2007                  </c></rc>
    <rc><c>  16</c><c>Bi</c><c>    208.98000000</c><c>     15.00000000</c><c>  PAW_PBE Bi_d 06Sep2000                </c></rc>
    <rc><c>  16</c><c>S </c><c>     32.06600000</c><c>      6.00000000</c><c>  PAW_PBE S 06Sep2000                   </c></rc>
    <rc><c>  16</c><c>O </c><c>     16.00000000</c><c>      6.00000000</c><c>  PAW_PBE O 08Apr2002                   </c></rc>
   </set>
  </array>
 </atominfo>
 <structure name="initialpos" >
  <crystal>
   <varray name="basis" >
    <v>      11.17850000       0.00000000       0.00000000 </v>
    <v>       0.00000000       9.57460000       0.00000000 </v>
    <v>       0.00000000       0.00000000      11.18240000 </v>
   </varray>
   <i name="volume">   1196.84853820 </i>
   <varray name="rec_basis" >
    <v>       0.08945744       0.00000000       0.00000000 </v>
    <v>       0.00000000       0.10444301       0.00000000 </v>
    <v>       0.00000000       0.00000000       0.08942624 </v>
   </varray>
  </crystal>
  <varray name="positions" >
   <v>       0.12461000       0.99984000       0.18687000 </v>
   <v>       0.87539000       0.00017000       0.43687000 </v>
   <v>       0.62461000       0.99984000       0.18687000 </v>
   <v>       0.12539000       0.99984000       0.93687000 </v>
   <v>       0.37539000       0.00017000       0.93687000 </v>
   <v>       0.12461000       0.99984000       0.68687000 </v>
   <v>       0.37461000       0.00017000       0.68687000 </v>
   <v>       0.62461000       0.99984000       0.68687000 </v>
   <v>       0.62539000       0.99984000       0.43687000 </v>
   <v>       0.62539000       0.99984000       0.93687000 </v>
   <v>       0.87539000       0.00017000       0.93687000 </v>
   <v>       0.87461000       0.00017000       0.68687000 </v>
   <v>       0.00013000       0.29519000       0.06281000 </v>
   <v>       0.25013000       0.70481000       0.06281000 </v>
   <v>       0.24987000       0.29519000       0.31282000 </v>
   <v>       0.49987000       0.70481000       0.31282000 </v>
   <v>       0.50013000       0.29519000       0.06281000 </v>
   <v>       0.75013000       0.70481000       0.06281000 </v>
   <v>       0.74987000       0.29519000       0.31282000 </v>
   <v>       0.99987000       0.70481000       0.31282000 </v>
   <v>       0.00013000       0.29519000       0.56281000 </v>
   <v>       0.25013000       0.70481000       0.56281000 </v>
   <v>       0.24987000       0.29519000       0.81282000 </v>
   <v>       0.49987000       0.70481000       0.81282000 </v>
   <v>       0.50013000       0.29519000       0.56281000 </v>
   <v>       0.75013000       0.70481000       0.56281000 </v>
   <v>       0.74987000       0.29519000       0.81282000 </v>
   <v>       0.99987000       0.70481000       0.81282000 </v>
   <v>       0.25005000       0.32677000       0.06286000 </v>
   <v>       0.00005000       0.67323000       0.06286000 </v>
   <v>       0.49995000       0.32677000       0.31286000 </v>
   <v>       0.24995000       0.67323000       0.31286000 </v>
   <v>       0.75005000       0.32677000       0.06286000 </v>
   <v>       0.50005000       0.67323000       0.06286000 </v>
   <v>       0.99995000       0.32677000       0.31286000 </v>
   <v>       0.74995000       0.67323000       0.31286000 </v>
   <v>       0.25005000       0.32677000       0.56286000 </v>
   <v>       0.00005000       0.67323000       0.56286000 </v>
   <v>       0.49995000       0.32677000       0.81286000 </v>
   <v>       0.24995000       0.67323000       0.81286000 </v>
   <v>       0.75005000       0.32677000       0.56286000 </v>
   <v>       0.50005000       0.67323000       0.56286000 </v>
   <v>       0.99995000       0.32677000       0.81286000 </v>
   <v>       0.74995000       0.67323000       0.81286000 </v>
   <v>       0.49987000       0.07798000       0.06246000 </v>
   <v>       0.24987000       0.92202000       0.06246000 </v>
   <v>       0.25013000       0.07798000       0.31246000 </v>
   <v>       0.00013000       0.92202000       0.31246000 </v>
   <v>       0.99987000       0.07798000       0.06246000 </v>
   <v>       0.74987000       0.92202000       0.06246000 </v>
   <v>       0.75013000       0.07798000       0.31246000 </v>
   <v>       0.50013000       0.92202000       0.31246000 </v>
   <v>       0.49987000       0.07798000       0.56246000 </v>
   <v>       0.24987000       0.92202000       0.56246000 </v>
   <v>       0.25013000       0.07798000       0.81246000 </v>
   <v>       0.00013000       0.92202000       0.81246000 </v>
   <v>       0.99987000       0.07798000       0.56246000 </v>
   <v>       0.74987000       0.92202000       0.56246000 </v>
   <v>       0.75013000       0.07798000       0.81246000 </v>
   <v>       0.50013000       0.92202000       0.81246000 </v>
  </varray>
 </structure>
 <calculation>
  <scstep>
   <time name="dav">   60.58   62.81</time>
   <time name="total">   60.75   63.28</time>
   <energy>
    <i name="alphaZ">   1067.11773629 </i>
    <i name="ewald"> -30642.36937745 </i>
    <i name="hartreedc"> -12709.80646426 </i>
    <i name="XCdc">   1321.23054027 </i>
    <i name="pawpsdc">  36729.48549953 </i>
    <i name="pawaedc"> -36149.63912807 </i>
    <i name="eentropy">      0.00000000 </i>
    <i name="bandstr">   1844.29387847 </i>
    <i name="atom">  44408.54722957 </i>
    <i name="e_fr_energy">   5868.85991434 </i>
    <i name="e_wo_entrp">   5868.85991434 </i>
    <i name="e_0_energy">   5868.85991434 </i>
   </energy>
  </scstep>
  <scstep>
   <time name="dav">   61.27   62.83</time>
   <time name="total">   61.28   62.84</time>
   <energy>
    <i name="e_fr_energy">    775.19190839 </i>
    <i name="e_wo_entrp">    775.19190839 </i>
    <i name="e_0_energy">    775.19190839 </i>
   </energy>
  </scstep>
  <scstep>
   <time name="dav">   70.88   71.47</time>
   <time name="total">   70.88   71.47</time>
   <energy>
    <i name="e_fr_energy">   -242.96250814 </i>
    <i name="e_wo_entrp">   -242.96250814 </i>
    <i name="e_0_energy">   -242.96250814 </i>
   </energy>
  </scstep>
  <scstep>
   <time name="dav">   73.77   74.42</time>
   <time name="total">   73.77   74.42</time>
   <energy>
    <i name="e_fr_energy">   -338.88883418 </i>
    <i name="e_wo_entrp">   -338.88883418 </i>
    <i name="e_0_energy">   -338.88883418 </i>
   </energy>
  </scstep>
  <scstep>
   <time name="dav">   98.26   98.77</time>
   <time name="total">   99.00   99.51</time>
   <energy>
    <i name="e_fr_energy">   -346.73257432 </i>
    <i name="e_wo_entrp">   -346.73257432 </i>
    <i name="e_0_energy">   -346.73257432 </i>
   </energy>
  </scstep>
  <scstep>
   <time name="dav">   86.12   86.30</time>
   <time name="total">   86.94   87.63</time>
   <energy>
    <i name="e_fr_energy">   -289.18112212 </i>
    <i name="e_wo_entrp">   -289.18112212 </i>
    <i name="e_0_energy">   -289.18112212 </i>
   </energy>
  </scstep>
  <scstep>
   <time name="dav">   67.76   68.11</time>
   <time name="total">   68.58   69.12</time>
   <energy>
    <i name="e_fr_energy">   -291.54386183 </i>
    <i name="e_wo_entrp">   -291.54386183 </i>
    <i name="e_0_energy">   -291.54386183 </i>
   </energy>
  </scstep>
  <scstep>
   <time name="dav">   84.84   86.14</time>
   <time name="total">   85.66   86.97</time>
   <energy>
    <i name="e_fr_energy">   -290.05127215 </i>
    <i name="e_wo_entrp">   -290.05127215 </i>
    <i name="e_0_energy">   -290.05127215 </i>
   </energy>
  </scstep>
  <scstep>
   <time name="dav">   69.34   70.88</time>
   <time name="total">   70.14   71.70</time>
   <energy>
    <i name="e_fr_energy">   -289.33593278 </i>
    <i name="e_wo_entrp">   -289.33593278 </i>
    <i name="e_0_energy">   -289.33593278 </i>
   </energy>
  </scstep>
  <scstep>
   <time name="dav">   79.66   81.20</time>
   <time name="total">   80.42   82.01</time>
   <energy>
    <i name="e_fr_energy">   -289.30640112 </i>
    <i name="e_wo_entrp">   -289.30640112 </i>
    <i name="e_0_energy">   -289.30640112 </i>
   </energy>
  </scstep>
  <scstep>
   <time name="dav">   77.39   78.12</time>
   <time name="total">   78.20   78.93</time>
   <energy>
    <i name="e_fr_energy">   -289.20742828 </i>
    <i name="e_wo_entrp">   -289.20742828 </i>
    <i name="e_0_energy">   -289.20742828 </i>
   </energy>
  </scstep>
  <scstep>
   <time name="dav">   73.39   73.77</time>
   <time name="total">   74.20   74.59</time>
   <energy>
    <i name="e_fr_energy">   -289.20934904 </i>
    <i name="e_wo_entrp">   -289.20934904 </i>
    <i name="e_0_energy">   -289.20934904 </i>
   </energy>
  </scstep>
  <scstep>
   <time name="dav">   79.44   79.51</time>
   <time name="total">   80.25   80.32</time>
   <energy>
    <i name="e_fr_energy">   -289.21152776 </i>
    <i name="e_wo_entrp">   -289.21152776 </i>
    <i name="e_0_energy">   -289.21152776 </i>
   </energy>
  </scstep>
  <scstep>
   <time name="dav">   85.85   85.93</time>
   <time name="total">   86.66   86.74</time>
   <energy>
    <i name="e_fr_energy">   -289.21191946 </i>
    <i name="e_wo_entrp">   -289.21191946 </i>
    <i name="e_0_energy">   -289.21191946 </i>
   </energy>
  </scstep>
  <scstep>
   <time name="dav">   70.83   70.89</time>
   <time name="total">   71.64   71.71</time>
   <energy>
    <i name="e_fr_energy">   -289.21206717 </i>
    <i name="e_wo_entrp">   -289.21206717 </i>
    <i name="e_0_energy">   -289.21206717 </i>
   </energy>
  </scstep>
  <scstep>
   <time name="dav">   80.28   80.43</time>
   <time name="total">   81.09   81.28</time>
   <energy>
    <i name="e_fr_energy">   -289.21211122 </i>
    <i name="e_wo_entrp">   -289.21211122 </i>
    <i name="e_0_energy">   -289.21211122 </i>
   </energy>
  </scstep>
  <scstep>
   <time name="dav">   77.93   78.62</time>
   <time name="total">   78.74   79.43</time>
   <energy>
    <i name="e_fr_energy">   -289.21213255 </i>
    <i name="e_wo_entrp">   -289.21213255 </i>
    <i name="e_0_energy">   -289.21213255 </i>
   </energy>
  </scstep>
  <scstep>
   <time name="dav">   69.95   70.19</time>
   <time name="total">   70.77   71.01</time>
   <energy>
    <i name="e_fr_energy">   -289.21213800 </i>
    <i name="e_wo_entrp">   -289.21213800 </i>
    <i name="e_0_energy">   -289.21213800 </i>
   </energy>
  </scstep>
  <scstep>
   <time name="dav">   69.17   69.26</time>
   <time name="total">   69.98   70.07</time>
   <energy>
    <i name="e_fr_energy">   -289.21214110 </i>
    <i name="e_wo_entrp">   -289.21214110 </i>
    <i name="e_0_energy">   -289.21214110 </i>
   </energy>
  </scstep>
  <scstep>
   <time name="dav">   57.01   57.18</time>
   <time name="total">   57.83   58.01</time>
   <energy>
    <i name="e_fr_energy">   -289.21214220 </i>
    <i name="e_wo_entrp">   -289.21214220 </i>
    <i name="e_0_energy">   -289.21214220 </i>
   </energy>
  </scstep>
  <scstep>
   <time name="dav">   51.93   52.02</time>
   <time name="total">   52.01   52.09</time>
   <energy>
    <i name="alphaZ">   1067.11773629 </i>
    <i name="ewald"> -30642.36937745 </i>
    <i name="hartreedc"> -12933.58213592 </i>
    <i name="XCdc">   1344.69333968 </i>
    <i name="pawpsdc">  43759.19683635 </i>
    <i name="pawaedc"> -43154.28844115 </i>
    <i name="eentropy">      0.00000000 </i>
    <i name="bandstr">  -4138.52733036 </i>
    <i name="atom">  44408.54722957 </i>
    <i name="e_fr_energy">   -289.21214299 </i>
    <i name="e_wo_entrp">   -289.21214299 </i>
    <i name="e_0_energy">   -289.21214299 </i>
   </energy>
  </scstep>
  <structure>
   <crystal>
    <varray name="basis" >
     <v>      11.17850000       0.00000000       0.00000000 </v>
     <v>       0.00000000       9.57460000       0.00000000 </v>
     <v>       0.00000000       0.00000000      11.18240000 </v>
    </varray>
    <i name="volume">   1196.84853820 </i>
    <varray name="rec_basis" >
     <v>       0.08945744       0.00000000       0.00000000 </v>
     <v>       0.00000000       0.10444301       0.00000000 </v>
     <v>       0.00000000       0.00000000       0.08942624 </v>
    </varray>
   </crystal>
   <varray name="positions" >
    <v>       0.12461000       0.99984000       0.18687000 </v>
    <v>       0.87539000       0.00017000       0.43687000 </v>
    <v>       0.62461000       0.99984000       0.18687000 </v>
    <v>       0.12539000       0.99984000       0.93687000 </v>
    <v>       0.37539000       0.00017000       0.93687000 </v>
    <v>       0.12461000       0.99984000       0.68687000 </v>
    <v>       0.37461000       0.00017000       0.68687000 </v>
    <v>       0.62461000       0.99984000       0.68687000 </v>
    <v>       0.62539000       0.99984000       0.43687000 </v>
    <v>       0.62539000       0.99984000       0.93687000 </v>
    <v>       0.87539000       0.00017000       0.93687000 </v>
    <v>       0.87461000       0.00017000       0.68687000 </v>
    <v>       0.00013000       0.29519000       0.06281000 </v>
    <v>       0.25013000       0.70481000       0.06281000 </v>
    <v>       0.24987000       0.29519000       0.31282000 </v>
    <v>       0.49987000       0.70481000       0.31282000 </v>
    <v>       0.50013000       0.29519000       0.06281000 </v>
    <v>       0.75013000       0.70481000       0.06281000 </v>
    <v>       0.74987000       0.29519000       0.31282000 </v>
    <v>       0.99987000       0.70481000       0.31282000 </v>
    <v>       0.00013000       0.29519000       0.56281000 </v>
    <v>       0.25013000       0.70481000       0.56281000 </v>
    <v>       0.24987000       0.29519000       0.81282000 </v>
    <v>       0.49987000       0.70481000       0.81282000 </v>
    <v>       0.50013000       0.29519000       0.56281000 </v>
    <v>       0.75013000       0.70481000       0.56281000 </v>
    <v>       0.74987000       0.29519000       0.81282000 </v>
    <v>       0.99987000       0.70481000       0.81282000 </v>
    <v>       0.25005000       0.32677000       0.06286000 </v>
    <v>       0.00005000       0.67323000       0.06286000 </v>
    <v>       0.49995000       0.32677000       0.31286000 </v>
    <v>       0.24995000       0.67323000       0.31286000 </v>
    <v>       0.75005000       0.32677000       0.06286000 </v>
    <v>       0.50005000       0.67323000       0.06286000 </v>
    <v>       0.99995000       0.32677000       0.31286000 </v>
    <v>       0.74995000       0.67323000       0.31286000 </v>
    <v>       0.25005000       0.32677000       0.56286000 </v>
    <v>       0.00005000       0.67323000       0.56286000 </v>
    <v>       0.49995000       0.32677000       0.81286000 </v>
    <v>       0.24995000       0.67323000       0.81286000 </v>
    <v>       0.75005000       0.32677000       0.56286000 </v>
    <v>       0.50005000       0.67323000       0.56286000 </v>
    <v>       0.99995000       0.32677000       0.81286000 </v>
    <v>       0.74995000       0.67323000       0.81286000 </v>
    <v>       0.49987000       0.07798000       0.06246000 </v>
    <v>       0.24987000       0.92202000       0.06246000 </v>
    <v>       0.25013000       0.07798000       0.31246000 </v>
    <v>       0.00013000       0.92202000       0.31246000 </v>
    <v>       0.99987000       0.07798000       0.06246000 </v>
    <v>       0.74987000       0.92202000       0.06246000 </v>
    <v>       0.75013000       0.07798000       0.31246000 </v>
    <v>       0.50013000       0.92202000       0.31246000 </v>
    <v>       0.49987000       0.07798000       0.56246000 </v>
    <v>       0.24987000       0.92202000       0.56246000 </v>
    <v>       0.25013000       0.07798000       0.81246000 </v>
    <v>       0.00013000       0.92202000       0.81246000 </v>
    <v>       0.99987000       0.07798000       0.56246000 </v>
    <v>       0.74987000       0.92202000       0.56246000 </v>
    <v>       0.75013000       0.07798000       0.81246000 </v>
    <v>       0.50013000       0.92202000       0.81246000 </v>
   </varray>
  </structure>
  <varray name="forces" >
   <v>       0.31113782      -0.05209109       0.75281524 </v>
   <v>       1.03685480       0.01427065      -1.07443771 </v>
   <v>      -0.33292015       0.01431617       0.37347407 </v>
   <v>       0.68084592       0.07740440       0.51309921 </v>
   <v>      -0.60859358       0.00638287       0.58881030 </v>
   <v>       0.85060549       0.02225821      -0.80237330 </v>
   <v>      -0.41820230      -0.04029857      -0.73343654 </v>
   <v>      -0.85035007      -0.00428084      -0.35191173 </v>
   <v>      -1.36928243       0.14143962      -0.81403763 </v>
   <v>      -1.40853507      -0.10894672       0.86283972 </v>
   <v>       1.17435937       0.00409854       2.24145380 </v>
   <v>       0.79289907       0.09502854      -1.38981253 </v>
   <v>       0.48964633       0.09241141       0.79819379 </v>
   <v>       0.09128092       0.95715330       0.63451674 </v>
   <v>       0.06496516      -2.58291122       0.14544599 </v>
   <v>      -0.85131252       0.92380601      -0.04762094 </v>
   <v>      -0.73518296       0.11401977       0.66634228 </v>
   <v>       0.14308313      -1.17867876       0.86042941 </v>
   <v>       0.26874407       0.17986104      -0.21482299 </v>
   <v>       0.54547008       1.87551482       0.00210281 </v>
   <v>       0.80670487       0.21133584      -0.81378502 </v>
   <v>      -0.01500888       1.87140397      -0.73112799 </v>
   <v>       0.06211528       0.16378440      -0.03913871 </v>
   <v>      -0.68670246      -1.17390474      -0.09959624 </v>
   <v>      -0.79952439       0.06898494      -0.54486166 </v>
   <v>      -0.01085542      -2.12766668      -0.61224852 </v>
   <v>      -0.16184696       3.09049457      -0.04755819 </v>
   <v>       0.81131054      -2.18010931      -0.00439672 </v>
   <v>      -0.01910360       0.23552823      -0.50790524 </v>
   <v>      -0.43905339      -0.09500134      -0.63132965 </v>
   <v>       0.53124443       0.16179874       0.04817716 </v>
   <v>       0.12003046      -0.28041643      -0.13671830 </v>
   <v>      -0.00589119      -0.05518802      -0.53406618 </v>
   <v>       0.44680533      -0.09649025      -0.44621230 </v>
   <v>      -0.50091146       0.21506209       0.01480506 </v>
   <v>      -0.14050970      -0.14837829       0.14404428 </v>
   <v>      -0.01234728       0.18989537       0.50529857 </v>
   <v>      -0.61824651      -0.05397691       0.62003622 </v>
   <v>       0.46679574       0.02776281       0.04583655 </v>
   <v>      -0.05218069      -0.21082031       0.10987943 </v>
   <v>       0.01983229      -0.01286921       0.42246493 </v>
   <v>       0.60133020      -0.10785489       0.36110508 </v>
   <v>      -0.50772220      -0.05765428      -0.00646373 </v>
   <v>       0.09824591       0.26415172      -0.00908031 </v>
   <v>       1.42136313      -0.22370357      -1.41619422 </v>
   <v>      -0.58537282      -0.82176659      -0.96661081 </v>
   <v>      -0.47339779       2.26473015      -0.52348470 </v>
   <v>      -0.34396329      -1.66487893       0.07699079 </v>
   <v>      -0.28736938      -0.12149897      -1.65366961 </v>
   <v>      -0.50472066       1.12268988      -2.06469875 </v>
   <v>      -1.03976674      -0.16495332       1.20527765 </v>
   <v>       1.89509802      -0.71404903       0.46994611 </v>
   <v>       1.56450996      -0.11791379       0.46483731 </v>
   <v>      -0.01912168      -1.51315095       1.42681263 </v>
   <v>      -0.08808847      -0.11753474       0.06240997 </v>
   <v>      -1.47219414       1.82046229      -0.03234164 </v>
   <v>      -1.51922676      -0.34824349       1.52763936 </v>
   <v>       0.05316391       1.68108180       0.54878184 </v>
   <v>       0.53106225      -2.57416409       0.29973896 </v>
   <v>       0.99800045       1.04226318       0.45633659 </v>
  </varray>
  <varray name="stress" >
   <v>      -2.02302745      -0.25916749       0.55554843 </v>
   <v>      -0.25916741     -11.40922268      -0.32910118 </v>
   <v>       0.55554830      -0.32910125      -2.18501203 </v>
  </varray>
  <energy>
   <i name="e_fr_energy">   -302.86255857 </i>
   <i name="e_wo_entrp">   -302.86255857 </i>
   <i name="e_0_energy">      0.00000000 </i>
  </energy>
  <time name="totalsc"> 1676.17 1692.83</time>
 </calculation>
 <calculation>
  <scstep>
   <time name="dav">   66.35   66.88</time>
   <time name="total">   67.19   67.72</time>
   <energy>
    <i name="alphaZ">   1077.20196151 </i>
    <i name="ewald"> -30733.48982496 </i>
    <i name="hartreedc"> -12962.96010006 </i>
    <i name="XCdc">   1350.31336538 </i>
    <i name="pawpsdc">  43759.32038809 </i>
    <i name="pawaedc"> -43154.41301081 </i>
    <i name="eentropy">      0.00000000 </i>
    <i name="bandstr">  -4032.22660813 </i>
    <i name="atom">  44408.54722957 </i>
    <i name="e_fr_energy">   -287.70659940 </i>
    <i name="e_wo_entrp">   -287.70659940 </i>
    <i name="e_0_energy">   -287.70659940 </i>
   </energy>
  </scstep>
  <scstep>
   <time name="dav">   71.31   71.89</time>
   <time name="total">   72.13   72.72</time>
   <energy>
    <i name="e_fr_energy">   -292.25949286 </i>
    <i name="e_wo_entrp">   -292.25949286 </i>
    <i name="e_0_energy">   -292.25949286 </i>
   </energy>
  </scstep>
  <scstep>
   <time name="dav">   87.20   89.90</time>
   <time name="total">   87.97   90.77</time>
   <energy>
    <i name="e_fr_energy">   -292.06363784 </i>
    <i name="e_wo_entrp">   -292.06363784 </i>
    <i name="e_0_energy">   -292.06363784 </i>
   </energy>
  </scstep>
  <scstep>
   <time name="dav">   77.75   78.68</time>
   <time name="total">   78.58   79.51</time>
   <energy>
    <i name="e_fr_energy">   -291.90803963 </i>
    <i name="e_wo_entrp">   -291.90803963 </i>
    <i name="e_0_energy">   -291.90803963 </i>
   </energy>
  </scstep>
  <scstep>
   <time name="dav">   79.20   79.50</time>
   <time name="total">   80.03   80.33</time>
   <energy>
    <i name="e_fr_energy">   -291.86802760 </i>
    <i name="e_wo_entrp">   -291.86802760 </i>
    <i name="e_0_energy">   -291.86802760 </i>
   </energy>
  </scstep>
  <scstep>
   <time name="dav">   86.70   87.16</time>
   <time name="total">   87.53   88.00</time>
   <energy>
    <i name="e_fr_energy">   -291.86558156 </i>
    <i name="e_wo_entrp">   -291.86558156 </i>
    <i name="e_0_energy">   -291.86558156 </i>
   </energy>
  </scstep>
  <scstep>
   <time name="dav">   82.54   83.19</time>
   <time name="total">   83.37   84.03</time>
   <energy>
    <i name="e_fr_energy">   -291.86448256 </i>
    <i name="e_wo_entrp">   -291.86448256 </i>
    <i name="e_0_energy">   -291.86448256 </i>
   </energy>
  </scstep>
  <scstep>
   <time name="dav">   75.10   75.36</time>
   <time name="total">   75.94   76.20</time>
   <energy>
    <i name="e_fr_energy">   -291.86344951 </i>
    <i name="e_wo_entrp">   -291.86344951 </i>
    <i name="e_0_energy">   -291.86344951 </i>
   </energy>
  </scstep>
  <scstep>
   <time name="dav">   87.69   88.88</time>
   <time name="total">   88.52   89.72</time>
   <energy>
    <i name="e_fr_energy">   -291.86344401 </i>
    <i name="e_wo_entrp">   -291.86344401 </i>
    <i name="e_0_energy">   -291.86344401 </i>
   </energy>
  </scstep>
  <scstep>
   <time name="dav">   75.13   75.42</time>
   <time name="total">   75.97   76.26</time>
   <energy>
    <i name="e_fr_energy">   -291.86346546 </i>
    <i name="e_wo_entrp">   -291.86346546 </i>
    <i name="e_0_energy">   -291.86346546 </i>
   </energy>
  </scstep>
  <scstep>
   <time name="dav">   76.65   76.93</time>
   <time name="total">   77.48   77.77</time>
   <energy>
    <i name="e_fr_energy">   -291.86347382 </i>
    <i name="e_wo_entrp">   -291.86347382 </i>
    <i name="e_0_energy">   -291.86347382 </i>
   </energy>
  </scstep>
  <scstep>
   <time name="dav">   75.33   76.91</time>
   <time name="total">   76.16   77.74</time>
   <energy>
    <i name="e_fr_energy">   -291.86347690 </i>
    <i name="e_wo_entrp">   -291.86347690 </i>
    <i name="e_0_energy">   -291.86347690 </i>
   </energy>
  </scstep>
  <scstep>
   <time name="dav">   63.94   64.45</time>
   <time name="total">   64.01   64.53</time>
   <energy>
    <i name="alphaZ">   1077.20196151 </i>
    <i name="ewald"> -30733.48982496 </i>
    <i name="hartreedc"> -12888.85070039 </i>
    <i name="XCdc">   1347.33783268 </i>
    <i name="pawpsdc">  44052.15426734 </i>
    <i name="pawaedc"> -43449.91494602 </i>
    <i name="eentropy">      0.00000000 </i>
    <i name="bandstr">  -4104.84929678 </i>
    <i name="atom">  44408.54722957 </i>
    <i name="e_fr_energy">   -291.86347705 </i>
    <i name="e_wo_entrp">   -291.86347705 </i>
    <i name="e_0_energy">   -291.86347705 </i>
   </energy>
  </scstep>
  <structure>
   <crystal>
    <varray name="basis" >
     <v>      11.16491706      -0.00174009       0.00373004 </v>
     <v>      -0.00149042       9.50898770      -0.00189260 </v>
     <v>       0.00373134      -0.00221041      11.16772435 </v>
    </varray>
    <i name="volume">   1185.64424165 </i>
    <varray name="rec_basis" >
     <v>       0.08956628       0.00001403      -0.00002992 </v>
     <v>       0.00001638       0.10516367       0.00002081 </v>
     <v>      -0.00002991       0.00001782       0.08954377 </v>
    </varray>
   </crystal>
   <varray name="positions" >
    <v>       0.12595277       0.99957753       0.19011776 </v>
    <v>       0.87986472       0.00024190       0.43223470 </v>
    <v>       0.62317323       0.99991213       0.18848123 </v>
    <v>       0.12832830       0.00023001       0.93908359 </v>
    <v>       0.37276351       0.00020216       0.93941022 </v>
    <v>       0.12828093       0.99995215       0.68340843 </v>
    <v>       0.37280518      -0.00003305       0.68370584 </v>
    <v>       0.62094017       0.99981843       0.68535180 </v>
    <v>       0.61948064       0.00055266       0.43335811 </v>
    <v>       0.61931124       0.99929106       0.94059243 </v>
    <v>       0.88045814       0.00019065       0.94653999 </v>
    <v>       0.87803189       0.00064881       0.68087413 </v>
    <v>       0.00224315       0.29565562       0.06625354 </v>
    <v>       0.25052394       0.70963272       0.06554741 </v>
    <v>       0.25015037       0.28217572       0.31344748 </v>
    <v>       0.49619602       0.70946470       0.31261456 </v>
    <v>       0.49695720       0.29576450       0.06568471 </v>
    <v>       0.75074750       0.69887110       0.06652203 </v>
    <v>       0.75102981       0.29609625       0.31189322 </v>
    <v>       0.00222407       0.71425998       0.31282907 </v>
    <v>       0.00361147       0.29625484       0.55929920 </v>
    <v>       0.25006523       0.71423927       0.55965580 </v>
    <v>       0.25013807       0.29601525       0.81265115 </v>
    <v>       0.49690642       0.69889515       0.81239033 </v>
    <v>       0.49667952       0.29553759       0.56045938 </v>
    <v>       0.75008315       0.69408952       0.56016866 </v>
    <v>       0.74917152       0.31076179       0.81261483 </v>
    <v>       0.00337134       0.69382528       0.81280103 </v>
    <v>       0.24996756       0.32795673       0.06066882 </v>
    <v>      -0.00184481       0.67275133       0.06013634 </v>
    <v>       0.50224267       0.32758524       0.31306784 </v>
    <v>       0.25046801       0.67181709       0.31227018 </v>
    <v>       0.75002458       0.32649193       0.06055595 </v>
    <v>       0.50197826       0.67274382       0.06093497 </v>
    <v>       0.99778823       0.32785361       0.31292387 </v>
    <v>       0.74934361       0.67248238       0.31348143 </v>
    <v>       0.24999671       0.32772681       0.56503994 </v>
    <v>      -0.00261814       0.67295803       0.56553493 </v>
    <v>       0.50196453       0.32690989       0.81305775 </v>
    <v>       0.24972481       0.67216776       0.81333404 </v>
    <v>       0.75013559       0.32670516       0.56468258 </v>
    <v>       0.50264514       0.67268656       0.56441786 </v>
    <v>       0.99775884       0.32647950       0.81283211 </v>
    <v>       0.75037400       0.67456096       0.81282083 </v>
    <v>       0.50600413       0.07685285       0.05635031 </v>
    <v>       0.24734373       0.91787944       0.05828989 </v>
    <v>       0.24808697       0.08939109       0.31020160 </v>
    <v>      -0.00135443       0.91363133       0.31279215 </v>
    <v>       0.99862981       0.07736781       0.05532581 </v>
    <v>       0.74769180       0.92767679       0.05355256 </v>
    <v>       0.74564272       0.07714886       0.31765976 </v>
    <v>       0.50830861       0.91842219       0.31448742 </v>
    <v>       0.50662190       0.07738588       0.56446538 </v>
    <v>       0.24978748       0.91439583       0.56861550 </v>
    <v>       0.24974984       0.07738779       0.81272925 </v>
    <v>      -0.00622350       0.93119260       0.81232047 </v>
    <v>       0.99331353       0.07622534       0.56905048 </v>
    <v>       0.75009944       0.93049031       0.56482753 </v>
    <v>       0.75242189       0.06500980       0.81375312 </v>
    <v>       0.50443703       0.92727156       0.81442871 </v>
   </varray>
  </structure>
  <varray name="forces" >
   <v>       0.23660926      -0.01347481       0.53832980 </v>
   <v>       0.50255553       0.03103532      -0.65207854 </v>
   <v>      -0.11138002       0.01175359       0.12214353 </v>
   <v>       0.33209625       0.05067616       0.14333673 </v>
   <v>      -0.36581544       0.00824257       0.32916980 </v>
   <v>       0.39679556       0.03267427      -0.41925901 </v>
   <v>      -0.14347198      -0.01078382      -0.43820730 </v>
   <v>      -0.20590763      -0.01959271      -0.02808875 </v>
   <v>      -0.31274679       0.14784897       0.23570267 </v>
   <v>       0.13504465      -0.14022203      -0.36709151 </v>
   <v>      -0.14645080      -0.17879414       0.24838685 </v>
   <v>      -0.41771353      -0.17149181       0.29761791 </v>
   <v>       0.16619014       0.14929453       0.25241582 </v>
   <v>       0.09555541      -0.96515905       0.30458988 </v>
   <v>       0.17047622       3.79538921       0.19602497 </v>
   <v>      -0.50435646      -0.80178252      -0.05210991 </v>
   <v>      -0.32824401       0.02655440       0.28318542 </v>
   <v>       0.06899019       0.25708394       0.21738906 </v>
   <v>       0.11098570       0.04633082      -0.06203650 </v>
   <v>       0.24564104      -2.39536161       0.03473975 </v>
   <v>       0.28937633      -0.09026125      -0.27226462 </v>
   <v>      -0.02208309      -2.07117940      -0.49886860 </v>
   <v>      -0.02228112       0.13845172       0.00123362 </v>
   <v>      -0.13081962       0.18075695      -0.04949428 </v>
   <v>      -0.26677842       0.08675837      -0.20454886 </v>
   <v>       0.00055766       0.11378197      -0.11621979 </v>
   <v>       0.00144716      -0.12573630      -0.05370561 </v>
   <v>       0.17151275       0.16321441      -0.03012220 </v>
   <v>      -0.01270038       0.16884035      -0.28133938 </v>
   <v>      -0.22161656      -0.11230339      -0.30826129 </v>
   <v>       0.33256551       0.11313091       0.02854692 </v>
   <v>       0.08331221      -0.09810516      -0.11831585 </v>
   <v>      -0.00017338       0.11906807      -0.22035363 </v>
   <v>       0.22468779      -0.11225698      -0.20169322 </v>
   <v>      -0.27841837       0.10155571       0.01278848 </v>
   <v>      -0.08941046      -0.18751539       0.06515226 </v>
   <v>      -0.01726223       0.09149871       0.31445280 </v>
   <v>      -0.28722288      -0.12157470       0.31059423 </v>
   <v>       0.17413006       0.17581733       0.04244091 </v>
   <v>      -0.00231281      -0.22729168       0.04853713 </v>
   <v>       0.02437807       0.25565075       0.14687114 </v>
   <v>       0.26294682      -0.12535278       0.13295702 </v>
   <v>      -0.19543411       0.24248451      -0.00611703 </v>
   <v>       0.02333235      -0.26653596       0.01577427 </v>
   <v>       0.39945794       0.24538686      -0.41097778 </v>
   <v>      -0.50624594       1.06388433      -0.59756637 </v>
   <v>      -0.55619287      -4.23715639      -0.61041348 </v>
   <v>      -0.14058538       2.57788345      -0.02100130 </v>
   <v>       0.60797395       0.23781156      -0.38018287 </v>
   <v>      -0.44782483      -0.65785387      -0.68607111 </v>
   <v>      -0.69882463       0.08761804       0.68116908 </v>
   <v>       1.11533809       0.72468777       0.04609361 </v>
   <v>       0.73483350       0.02875921       0.21915895 </v>
   <v>       0.01721585       2.37539328       1.18257611 </v>
   <v>       0.01304634      -0.07671860       0.00176865 </v>
   <v>      -0.38717343      -0.68955561       0.03235442 </v>
   <v>      -0.30875933       0.42393852       0.30528111 </v>
   <v>      -0.16278137      -0.63515244      -0.18172560 </v>
   <v>       0.25533272       0.75477553       0.30980511 </v>
   <v>       0.09860283      -0.49681968       0.16752638 </v>
  </varray>
  <varray name="stress" >
   <v>       7.47696712       1.44556883      -0.40479062 </v>
   <v>       1.44556908      11.89910550       1.35659900 </v>
   <v>      -0.40479063       1.35659877       7.05322196 </v>
  </varray>
  <energy>
   <i name="e_fr_energy">   -305.62491334 </i>
   <i name="e_wo_entrp">   -305.62491334 </i>
   <i name="e_0_energy">      0.00000000 </i>
  </energy>
  <time name="totalsc"> 1121.03 1132.63</time>
 </calculation>
 <calculation>
  <scstep>
   <time name="dav">   65.10   66.70</time>
   <time name="total">   65.83   67.53</time>
   <energy>
    <i name="alphaZ">   1075.72534802 </i>
    <i name="ewald"> -30726.13527245 </i>
    <i name="hartreedc"> -12879.55066481 </i>
    <i name="XCdc">   1346.43406182 </i>
    <i name="pawpsdc">  44052.22375327 </i>
    <i name="pawaedc"> -43449.98468376 </i>
    <i name="eentropy">      0.00000000 </i>
    <i name="bandstr">  -4119.13603315 </i>
    <i name="atom">  44408.54722957 </i>
    <i name="e_fr_energy">   -291.87626149 </i>
    <i name="e_wo_entrp">   -291.87626149 </i>
    <i name="e_0_energy">   -291.87626149 </i>
   </energy>
  </scstep>
  <scstep>
   <time name="dav">   71.63   73.73</time>
   <time name="total">   72.46   74.56</time>
   <energy>
    <i name="e_fr_energy">   -291.98230177 </i>
    <i name="e_wo_entrp">   -291.98230177 </i>
    <i name="e_0_energy">   -291.98230177 </i>
   </energy>
  </scstep>
  <scstep>
   <time name="dav">   76.57   77.85</time>
   <time name="total">   77.41   78.69</time>
   <energy>
    <i name="e_fr_energy">   -291.97764351 </i>
    <i name="e_wo_entrp">   -291.97764351 </i>
    <i name="e_0_energy">   -291.97764351 </i>
   </energy>
  </scstep>
  <scstep>
   <time name="dav">   69.91   70.99</time>
   <time name="total">   70.74   71.82</time>
   <energy>
    <i name="e_fr_energy">   -291.97262905 </i>
    <i name="e_wo_entrp">   -291.97262905 </i>
    <i name="e_0_energy">   -291.97262905 </i>
   </energy>
  </scstep>
  <scstep>
   <time name="dav">   90.19   91.62</time>
   <time name="total">   91.01   92.46</time>
   <energy>
    <i name="e_fr_energy">   -291.97188843 </i>
    <i name="e_wo_entrp">   -291.97188843 </i>
    <i name="e_0_energy">   -291.97188843 </i>
   </energy>
  </scstep>
  <scstep>
   <time name="dav">   76.22   77.20</time>
   <time name="total">   77.00   78.04</time>
   <energy>
    <i name="e_fr_energy">   -291.97182422 </i>
    <i name="e_wo_entrp">   -291.97182422 </i>
    <i name="e_0_energy">   -291.97182422 </i>
   </energy>
  </scstep>
  <scstep>
   <time name="dav">   88.94   90.11</time>
   <time name="total">   89.77   90.95</time>
   <energy>
    <i name="e_fr_energy">   -291.97178953 </i>
    <i name="e_wo_entrp">   -291.97178953 </i>
    <i name="e_0_energy">   -291.97178953 </i>
   </energy>
  </scstep>
  <scstep>
   <time name="dav">   68.76   69.87</time>
   <time name="total">   69.59   70.70</time>
   <energy>
    <i name="e_fr_energy">   -291.97177122 </i>
    <i name="e_wo_entrp">   -291.97177122 </i>
    <i name="e_0_energy">   -291.97177122 </i>
   </energy>
  </scstep>
  <scstep>
   <time name="dav">   82.50   83.30</time>
   <time name="total">   83.33   84.13</time>
   <energy>
    <i name="e_fr_energy">   -291.97177121 </i>
    <i name="e_wo_entrp">   -291.97177121 </i>
    <i name="e_0_energy">   -291.97177121 </i>
   </energy>
  </scstep>
  <scstep>
   <time name="dav">   59.63   60.27</time>
   <time name="total">   60.46   61.11</time>
   <energy>
    <i name="e_fr_energy">   -291.97177254 </i>
    <i name="e_wo_entrp">   -291.97177254 </i>
    <i name="e_0_energy">   -291.97177254 </i>
   </energy>
  </scstep>
  <scstep>
   <time name="dav">   53.32   53.64</time>
   <time name="total">   53.39   53.71</time>
   <energy>
    <i name="alphaZ">   1075.72534802 </i>
    <i name="ewald"> -30726.13527245 </i>
    <i name="hartreedc"> -12890.70112029 </i>
    <i name="XCdc">   1346.89462946 </i>
    <i name="pawpsdc">  43986.99402055 </i>
    <i name="pawaedc"> -43383.99978480 </i>
    <i name="eentropy">      0.00000000 </i>
    <i name="bandstr">  -4109.29682324 </i>
    <i name="atom">  44408.54722957 </i>
    <i name="e_fr_energy">   -291.97177318 </i>
    <i name="e_wo_entrp">   -291.97177318 </i>
    <i name="e_0_energy">   -291.97177318 </i>
   </energy>
  </scstep>
  <structure>
   <crystal>
    <varray name="basis" >
     <v>      11.16689344      -0.00148690       0.00318730 </v>
     <v>      -0.00127356       9.51853462      -0.00161722 </v>
     <v>       0.00318842      -0.00188879      11.16985973 </v>
    </varray>
    <i name="volume">   1187.27173726 </i>
    <varray name="rec_basis" >
     <v>       0.08955043       0.00001198      -0.00002556 </v>
     <v>       0.00001398       0.10505819       0.00001776 </v>
     <v>      -0.00002555       0.00001521       0.08952665 </v>
    </varray>
   </crystal>
   <varray name="positions" >
    <v>       0.12575731       0.99961584       0.18964465 </v>
    <v>       0.87921260       0.00023141       0.43291027 </v>
    <v>       0.62338262       0.99990155       0.18824641 </v>
    <v>       0.12790034       0.00017272       0.93876121 </v>
    <v>       0.37314627       0.00019743       0.93903999 </v>
    <v>       0.12774597       0.99993574       0.68391295 </v>
    <v>       0.37306796      -0.00000315       0.68416676 </v>
    <v>       0.62147473       0.99982174       0.68557282 </v>
    <v>       0.62034134       0.00044852       0.43386948 </v>
    <v>       0.62019699       0.99937152       0.94004980 </v>
    <v>       0.87972027       0.00018716       0.94513135 </v>
    <v>       0.87753308       0.00057877       0.68174786 </v>
    <v>       0.00193546       0.29558723       0.06575192 </v>
    <v>       0.25046659       0.70892604       0.06514848 </v>
    <v>       0.25010981       0.28408240       0.31335639 </v>
    <v>       0.49673115       0.70878285       0.31264419 </v>
    <v>       0.49741955       0.29568032       0.06526570 </v>
    <v>       0.75065784       0.69974106       0.06598138 </v>
    <v>       0.75086078       0.29596348       0.31202828 </v>
    <v>       0.00188094       0.71287541       0.31282763 </v>
    <v>       0.00310409       0.29609886       0.55981085 </v>
    <v>       0.25007433       0.71285791       0.56011512 </v>
    <v>       0.25009899       0.29589434       0.81267574 </v>
    <v>       0.49733826       0.69976183       0.81245293 </v>
    <v>       0.49718207       0.29548683       0.56080168 </v>
    <v>       0.75009006       0.69566026       0.56055376 </v>
    <v>       0.74927296       0.30848041       0.81264430 </v>
    <v>       0.00286147       0.69543455       0.81280424 </v>
    <v>       0.24997944       0.32778294       0.06098803 </v>
    <v>      -0.00156889       0.67282160       0.06053309 </v>
    <v>       0.50190867       0.32746573       0.31303765 </v>
    <v>       0.25039255       0.67202410       0.31235617 </v>
    <v>       0.75002817       0.32653275       0.06089165 </v>
    <v>       0.50169726       0.67281507       0.06121554 </v>
    <v>       0.99810315       0.32769491       0.31291443 </v>
    <v>       0.74943199       0.67259191       0.31339088 </v>
    <v>       0.25000456       0.32758655       0.56472230 </v>
    <v>      -0.00222931       0.67299786       0.56514508 </v>
    <v>       0.50167106       0.32688933       0.81302903 </v>
    <v>       0.24975766       0.67232338       0.81326499 </v>
    <v>       0.75012321       0.32671459       0.56441704 </v>
    <v>       0.50226716       0.67276606       0.56419103 </v>
    <v>       0.99807806       0.32652212       0.81283608 </v>
    <v>       0.75031220       0.67436595       0.81282652 </v>
    <v>       0.50511022       0.07701803       0.05724080 </v>
    <v>       0.24771164       0.91848628       0.05889744 </v>
    <v>       0.24838427       0.08771939       0.31053026 </v>
    <v>      -0.00113800       0.91486037       0.31274389 </v>
    <v>       0.99881015       0.07745778       0.05636519 </v>
    <v>       0.74800858       0.92684838       0.05485010 </v>
    <v>       0.74629670       0.07727058       0.31690198 </v>
    <v>       0.50711730       0.91894901       0.31419252 </v>
    <v>       0.50563838       0.07747267       0.56417355 </v>
    <v>       0.24979995       0.91551263       0.56771885 </v>
    <v>       0.24980525       0.07747455       0.81269001 </v>
    <v>      -0.00529809       0.92984890       0.81234026 </v>
    <v>       0.99426904       0.07648236       0.56809000 </v>
    <v>       0.75006596       0.92924925       0.56448239 </v>
    <v>       0.75208832       0.06690994       0.81356515 </v>
    <v>       0.50380957       0.92650197       0.81414195 </v>
   </varray>
  </structure>
  <varray name="forces" >
   <v>       0.24973857      -0.01462049       0.57419913 </v>
   <v>       0.58115449       0.02371392      -0.71474884 </v>
   <v>      -0.14538624       0.01011153       0.15999909 </v>
   <v>       0.38366647       0.05149647       0.19939396 </v>
   <v>      -0.40204107       0.00632911       0.36875190 </v>
   <v>       0.46468778       0.02592413      -0.47866415 </v>
   <v>      -0.18513943      -0.01871054      -0.48424216 </v>
   <v>      -0.30226618      -0.01479086      -0.07825790 </v>
   <v>      -0.47873336       0.12963090       0.06550997 </v>
   <v>      -0.11707638      -0.11461900      -0.15710275 </v>
   <v>       0.07514177      -0.12347609       0.56983891 </v>
   <v>      -0.19759737      -0.10430012       0.01636888 </v>
   <v>       0.21746585       0.14026893       0.33652162 </v>
   <v>       0.09049930      -0.62385952       0.34836153 </v>
   <v>       0.13556807       2.28491562       0.16290670 </v>
   <v>      -0.54796409      -0.50897466      -0.04844920 </v>
   <v>      -0.39410773       0.04134473       0.34435751 </v>
   <v>       0.08154727       0.08852996       0.31365370 </v>
   <v>       0.13812224       0.06669726      -0.08347817 </v>
   <v>       0.27860424      -1.49909296       0.02983736 </v>
   <v>       0.37248023      -0.04758027      -0.35918949 </v>
   <v>      -0.02131733      -1.26928347      -0.50372239 </v>
   <v>      -0.01095871       0.14018176      -0.00461191 </v>
   <v>      -0.21291411       0.02089840      -0.05740447 </v>
   <v>      -0.34990283       0.08405368      -0.25933889 </v>
   <v>      -0.00211045      -0.11590696      -0.19047959 </v>
   <v>      -0.02103763       0.15400525      -0.05213358 </v>
   <v>       0.26714639      -0.07191999      -0.02641744 </v>
   <v>      -0.01194131       0.18271466      -0.32225073 </v>
   <v>      -0.25527851      -0.11211951      -0.35933375 </v>
   <v>       0.36812612       0.12375706       0.03141311 </v>
   <v>       0.09232167      -0.12969208      -0.12106500 </v>
   <v>      -0.00235584       0.09587378      -0.27154097 </v>
   <v>       0.25869965      -0.11099820      -0.23917369 </v>
   <v>      -0.32015592       0.12218945       0.01373175 </v>
   <v>      -0.09744778      -0.18294933       0.07794893 </v>
   <v>      -0.01601502       0.10944715       0.34933288 </v>
   <v>      -0.33869548      -0.11517183       0.35965088 </v>
   <v>       0.22159145       0.15604363       0.04357931 </v>
   <v>      -0.01099745      -0.22600445       0.05745955 </v>
   <v>       0.02340884       0.21933259       0.19061617 </v>
   <v>       0.31565406      -0.12510565       0.16753702 </v>
   <v>      -0.24542389       0.20235787      -0.00612374 </v>
   <v>       0.03428619      -0.19919626       0.01316563 </v>
   <v>       0.59089549       0.14722164      -0.60187769 </v>
   <v>      -0.51510868       0.73134382      -0.64762574 </v>
   <v>      -0.52617242      -2.72187429      -0.57543107 </v>
   <v>      -0.15921678       1.69397522      -0.00818648 </v>
   <v>       0.43071939       0.15443055      -0.60690696 </v>
   <v>      -0.45860142      -0.42701855      -0.90854874 </v>
   <v>      -0.75486564       0.04853583       0.76202286 </v>
   <v>       1.23783791       0.49264559       0.12585646 </v>
   <v>       0.86527156       0.00143953       0.25919614 </v>
   <v>       0.01240776       1.59057845       1.19049791 </v>
   <v>      -0.00152935      -0.07884353       0.01127212 </v>
   <v>      -0.55636001      -0.42180871       0.02072042 </v>
   <v>      -0.54162921       0.28016431       0.53724364 </v>
   <v>      -0.12775861      -0.38479964      -0.06982758 </v>
   <v>       0.29977278       0.44454687       0.31498632 </v>
   <v>       0.24129069      -0.30198268       0.22020173 </v>
  </varray>
  <varray name="stress" >
   <v>       5.63019893       1.08267166      -0.28492540 </v>
   <v>       1.08267192       4.97761965       0.91378060 </v>
   <v>      -0.28492530       0.91378042       5.27279117 </v>
  </varray>
  <energy>
   <i name="e_fr_energy">   -305.71571589 </i>
   <i name="e_wo_entrp">   -305.71571589 </i>
   <i name="e_0_energy">      0.00000000 </i>
  </energy>
  <time name="totalsc">  916.91  930.50</time>
 </calculation>
 <calculation>
  <scstep>
   <time name="dav">   66.72   67.30</time>
   <time name="total">   67.55   68.13</time>
   <energy>
    <i name="alphaZ">   1068.86221204 </i>
    <i name="ewald"> -30773.94280536 </i>
    <i name="hartreedc"> -12757.25634847 </i>
    <i name="XCdc">   1342.53891879 </i>
    <i name="pawpsdc">  43987.19689378 </i>
    <i name="pawaedc"> -43384.20205922 </i>
    <i name="eentropy">      0.00000000 </i>
    <i name="bandstr">  -4182.83990405 </i>
    <i name="atom">  44408.54722957 </i>
    <i name="e_fr_energy">   -291.09586291 </i>
    <i name="e_wo_entrp">   -291.09586291 </i>
    <i name="e_0_energy">   -291.09586291 </i>
   </energy>
  </scstep>
  <scstep>
   <time name="dav">   69.23   69.34</time>
   <time name="total">   70.07   70.18</time>
   <energy>
    <i name="e_fr_energy">   -292.88479344 </i>
    <i name="e_wo_entrp">   -292.88479344 </i>
    <i name="e_0_energy">   -292.88479344 </i>
   </energy>
  </scstep>
  <scstep>
   <time name="dav">   84.74   85.10</time>
   <time name="total">   85.54   85.94</time>
   <energy>
    <i name="e_fr_energy">   -292.84844569 </i>
    <i name="e_wo_entrp">   -292.84844569 </i>
    <i name="e_0_energy">   -292.84844569 </i>
   </energy>
  </scstep>
  <scstep>
   <time name="dav">   79.94   80.45</time>
   <time name="total">   80.77   81.28</time>
   <energy>
    <i name="e_fr_energy">   -292.81438031 </i>
    <i name="e_wo_entrp">   -292.81438031 </i>
    <i name="e_0_energy">   -292.81438031 </i>
   </energy>
  </scstep>
  <scstep>
   <time name="dav">   71.07   71.57</time>
   <time name="total">   71.90   72.40</time>
   <energy>
    <i name="e_fr_energy">   -292.78796621 </i>
    <i name="e_wo_entrp">   -292.78796621 </i>
    <i name="e_0_energy">   -292.78796621 </i>
   </energy>
  </scstep>
  <scstep>
   <time name="dav">   74.71   75.49</time>
   <time name="total">   75.54   76.33</time>
   <energy>
    <i name="e_fr_energy">   -292.78323160 </i>
    <i name="e_wo_entrp">   -292.78323160 </i>
    <i name="e_0_energy">   -292.78323160 </i>
   </energy>
  </scstep>
  <scstep>
   <time name="dav">   78.28   78.76</time>
   <time name="total">   79.12   79.60</time>
   <energy>
    <i name="e_fr_energy">   -292.78352270 </i>
    <i name="e_wo_entrp">   -292.78352270 </i>
    <i name="e_0_energy">   -292.78352270 </i>
   </energy>
  </scstep>
  <scstep>
   <time name="dav">   88.63   89.41</time>
   <time name="total">   89.46   90.25</time>
   <energy>
    <i name="e_fr_energy">   -292.78335017 </i>
    <i name="e_wo_entrp">   -292.78335017 </i>
    <i name="e_0_energy">   -292.78335017 </i>
   </energy>
  </scstep>
  <scstep>
   <time name="dav">   74.97   75.71</time>
   <time name="total">   75.80   76.54</time>
   <energy>
    <i name="e_fr_energy">   -292.78323985 </i>
    <i name="e_wo_entrp">   -292.78323985 </i>
    <i name="e_0_energy">   -292.78323985 </i>
   </energy>
  </scstep>
  <scstep>
   <time name="dav">   74.35   75.54</time>
   <time name="total">   75.18   76.37</time>
   <energy>
    <i name="e_fr_energy">   -292.78324434 </i>
    <i name="e_wo_entrp">   -292.78324434 </i>
    <i name="e_0_energy">   -292.78324434 </i>
   </energy>
  </scstep>
  <scstep>
   <time name="dav">   68.89   70.56</time>
   <time name="total">   69.71   71.40</time>
   <energy>
    <i name="e_fr_energy">   -292.78324714 </i>
    <i name="e_wo_entrp">   -292.78324714 </i>
    <i name="e_0_energy">   -292.78324714 </i>
   </energy>
  </scstep>
  <scstep>
   <time name="dav">   68.88   70.01</time>
   <time name="total">   69.71   70.86</time>
   <energy>
    <i name="e_fr_energy">   -292.78324923 </i>
    <i name="e_wo_entrp">   -292.78324923 </i>
    <i name="e_0_energy">   -292.78324923 </i>
   </energy>
  </scstep>
  <scstep>
   <time name="dav">   61.12   62.35</time>
   <time name="total">   61.95   63.18</time>
   <energy>
    <i name="e_fr_energy">   -292.78325107 </i>
    <i name="e_wo_entrp">   -292.78325107 </i>
    <i name="e_0_energy">   -292.78325107 </i>
   </energy>
  </scstep>
  <scstep>
   <time name="dav">   54.24   54.96</time>
   <time name="total">   54.31   55.03</time>
   <energy>
    <i name="alphaZ">   1068.86221204 </i>
    <i name="ewald"> -30773.94280536 </i>
    <i name="hartreedc"> -12813.21711196 </i>
    <i name="XCdc">   1345.20116232 </i>
    <i name="pawpsdc">  43682.51585297 </i>
    <i name="pawaedc"> -43074.95119932 </i>
    <i name="eentropy">      0.00000000 </i>
    <i name="bandstr">  -4135.79859208 </i>
    <i name="atom">  44408.54722957 </i>
    <i name="e_fr_energy">   -292.78325181 </i>
    <i name="e_wo_entrp">   -292.78325181 </i>
    <i name="e_0_energy">   -292.78325181 </i>
   </energy>
  </scstep>
  <structure>
   <crystal>
    <varray name="basis" >
     <v>      11.19924496       0.00499255       0.00245788 </v>
     <v>       0.00424567       9.52662657       0.00285301 </v>
     <v>       0.00245915       0.00336216      11.19958858 </v>
    </varray>
    <i name="volume">   1194.89517766 </i>
    <varray name="rec_basis" >
     <v>       0.08929176      -0.00003979      -0.00001959 </v>
     <v>      -0.00004679       0.10496898      -0.00003150 </v>
     <v>      -0.00001958      -0.00002673       0.08928901 </v>
    </varray>
   </crystal>
   <varray name="positions" >
    <v>       0.12720187       0.99946661       0.19301481 </v>
    <v>       0.88297789       0.00036924       0.42853792 </v>
    <v>       0.62234659       0.99997286       0.18939528 </v>
    <v>       0.13038020       0.00054297       0.94025290 </v>
    <v>       0.37068073       0.00023823       0.94134004 </v>
    <v>       0.13078410       0.00009658       0.68087874 </v>
    <v>       0.37175724      -0.00015649       0.68119852 </v>
    <v>       0.61911929       0.99974201       0.68479525 </v>
    <v>       0.61658197       0.00129794       0.43310428 </v>
    <v>       0.61790383       0.99864373       0.94049508 </v>
    <v>       0.88153620      -0.00041296       0.95038691 </v>
    <v>       0.87771904       0.00020784       0.68003893 </v>
    <v>       0.00347339       0.29641688       0.06818357 </v>
    <v>       0.25096212       0.70729318       0.06742039 </v>
    <v>       0.25076214       0.29144985       0.31422641 </v>
    <v>       0.49334365       0.70766415       0.31238093 </v>
    <v>       0.49482538       0.29605494       0.06756270 </v>
    <v>       0.75118208       0.69840830       0.06839671 </v>
    <v>       0.75178417       0.29656163       0.31140331 </v>
    <v>       0.00374677       0.70831377       0.31295424 </v>
    <v>       0.00569916       0.29618180       0.55726316 </v>
    <v>       0.24996619       0.70942000       0.55706732 </v>
    <v>       0.25013261       0.29682994       0.81260647 </v>
    <v>       0.49556665       0.69810252       0.81208510 </v>
[...]
       <r>    8.6036    0.0000 </r>
       <r>    8.6460    0.0000 </r>
       <r>    8.6904    0.0000 </r>
       <r>    8.7103    0.0000 </r>
       <r>    8.7823    0.0000 </r>
       <r>    8.8200    0.0000 </r>
       <r>    8.9487    0.0000 </r>
      </set>
     </set>
    </set>
   </array>
  </eigenvalues>
  <separator name="orbital magnetization" >
   <v name="MAGDIPOLOUT">      0.00000000      0.00000000      0.00000000</v>
  </separator>
  <dos>
   <i name="efermi">      4.17078943 </i>
   <total>
    <array>
     <dimension dim="1">gridpoints</dimension>
     <dimension dim="2">spin</dimension>
     <field>energy</field>
     <field>total</field>
     <field>integrated</field>
     <set>
      <set comment="spin 1">
       <r>   -42.3331     0.0000     0.0000 </r>
       <r>   -42.1516     0.0000     0.0000 </r>
       <r>   -41.9701     0.0000     0.0000 </r>
       <r>   -41.7886     0.0000     0.0000 </r>
       <r>   -41.6072     0.0000     0.0000 </r>
       <r>   -41.4257     0.0000     0.0000 </r>
       <r>   -41.2442     0.0000     0.0000 </r>
       <r>   -41.0627     0.0000     0.0000 </r>
       <r>   -40.8812     0.0000     0.0000 </r>
       <r>   -40.6998     0.0000     0.0000 </r>
       <r>   -40.5183     0.0000     0.0000 </r>
       <r>   -40.3368     0.0000     0.0000 </r>
       <r>   -40.1553     0.0000     0.0000 </r>
       <r>   -39.9739     0.0000     0.0000 </r>
       <r>   -39.7924     0.0000     4.0000 </r>
       <r>   -39.6109     0.0000     8.0000 </r>
       <r>   -39.4294     0.0000    14.0000 </r>
       <r>   -39.2479     0.0000    14.0000 </r>
       <r>   -39.0665     0.0000    16.0000 </r>
       <r>   -38.8850     0.0000    16.0000 </r>
       <r>   -38.7035     0.0000    16.0000 </r>
       <r>   -38.5220     0.0000    16.0000 </r>
       <r>   -38.3405     0.0000    16.0000 </r>
       <r>   -38.1591     0.0000    16.0000 </r>
       <r>   -37.9776     0.0000    16.0000 </r>
       <r>   -37.7961     0.0000    16.0000 </r>
       <r>   -37.6146     0.0000    16.0000 </r>
       <r>   -37.4332     0.0000    16.0000 </r>
       <r>   -37.2517     0.0000    16.0000 </r>
       <r>   -37.0702     0.0000    16.0000 </r>
       <r>   -36.8887     0.0000    16.0000 </r>
       <r>   -36.7072     0.0000    16.0000 </r>
       <r>   -36.5258     0.0000    16.0000 </r>
       <r>   -36.3443     0.0000    16.0000 </r>
       <r>   -36.1628     0.0000    16.0000 </r>
       <r>   -35.9813     0.0000    16.0000 </r>
       <r>   -35.7998     0.0000    16.0000 </r>
       <r>   -35.6184     0.0000    16.0000 </r>
       <r>   -35.4369     0.0000    16.0000 </r>
       <r>   -35.2554     0.0000    16.0000 </r>
       <r>   -35.0739     0.0000    16.0000 </r>
       <r>   -34.8925     0.0000    16.0000 </r>
       <r>   -34.7110     0.0000    16.0000 </r>
       <r>   -34.5295     0.0000    16.0000 </r>
       <r>   -34.3480     0.0000    16.0000 </r>
       <r>   -34.1665     0.0000    16.0000 </r>
       <r>   -33.9851     0.0000    16.0000 </r>
       <r>   -33.8036     0.0000    16.0000 </r>
       <r>   -33.6221     0.0000    16.0000 </r>
       <r>   -33.4406     0.0000    16.0000 </r>
       <r>   -33.2591     0.0000    16.0000 </r>
       <r>   -33.0777     0.0000    16.0000 </r>
       <r>   -32.8962     0.0000    16.0000 </r>
       <r>   -32.7147     0.0000    16.0000 </r>
       <r>   -32.5332     0.0000    16.0000 </r>
       <r>   -32.3518     0.0000    16.0000 </r>
       <r>   -32.1703     0.0000    16.0000 </r>
       <r>   -31.9888     0.0000    16.0000 </r>
       <r>   -31.8073     0.0000    16.0000 </r>
       <r>   -31.6258     0.0000    16.0000 </r>
       <r>   -31.4444     0.0000    16.0000 </r>
       <r>   -31.2629     0.0000    16.0000 </r>
       <r>   -31.0814     0.0000    16.0000 </r>
       <r>   -30.8999     0.0000    16.0000 </r>
       <r>   -30.7184     0.0000    16.0000 </r>
       <r>   -30.5370     0.0000    16.0000 </r>
       <r>   -30.3555     0.0000    16.0000 </r>
       <r>   -30.1740     0.0000    16.0000 </r>
       <r>   -29.9925     0.0000    16.0000 </r>
       <r>   -29.8111     0.0000    16.0000 </r>
       <r>   -29.6296     0.0000    16.0000 </r>
       <r>   -29.4481     0.0000    16.0000 </r>
       <r>   -29.2666     0.0000    16.0000 </r>
       <r>   -29.0851     0.0000    16.0000 </r>
       <r>   -28.9037     0.0000    16.0000 </r>
       <r>   -28.7222     0.0000    16.0000 </r>
       <r>   -28.5407     0.0000    16.0000 </r>
       <r>   -28.3592     0.0000    16.0000 </r>
       <r>   -28.1777     0.0000    16.0000 </r>
       <r>   -27.9963     0.0000    16.0000 </r>
       <r>   -27.8148     0.0000    16.0000 </r>
       <r>   -27.6333     0.0000    16.0000 </r>
       <r>   -27.4518     0.0000    16.0000 </r>
       <r>   -27.2704     0.0000    16.0000 </r>
       <r>   -27.0889     0.0000    16.0000 </r>
       <r>   -26.9074     0.0000    16.0000 </r>
       <r>   -26.7259     0.0000    16.0000 </r>
       <r>   -26.5444     0.0000    16.0000 </r>
       <r>   -26.3630     0.0000    16.0000 </r>
       <r>   -26.1815     0.0000    16.0000 </r>
       <r>   -26.0000     0.0000    16.0000 </r>
       <r>   -25.8185     0.0000    16.0000 </r>
       <r>   -25.6371     0.0000    16.0000 </r>
       <r>   -25.4556     0.0000    16.0000 </r>
       <r>   -25.2741     0.0000    16.0000 </r>
       <r>   -25.0926     0.0000    16.0000 </r>
       <r>   -24.9111     0.0000    16.0000 </r>
       <r>   -24.7297     0.0000    16.0000 </r>
       <r>   -24.5482     0.0000    16.0000 </r>
       <r>   -24.3667     0.0000    16.0000 </r>
       <r>   -24.1852     0.0000    16.0000 </r>
       <r>   -24.0037     0.0000    16.0000 </r>
       <r>   -23.8223     0.0000    16.0000 </r>
       <r>   -23.6408     0.0000    16.0000 </r>
       <r>   -23.4593     0.0000    16.0000 </r>
       <r>   -23.2778     0.0000    16.0000 </r>
       <r>   -23.0964     0.0000    16.0000 </r>
       <r>   -22.9149     0.0000    16.0000 </r>
       <r>   -22.7334     0.0000    16.0000 </r>
       <r>   -22.5519     0.0000    16.0000 </r>
       <r>   -22.3704     0.0000    16.0000 </r>
       <r>   -22.1890     0.0000    16.0000 </r>
       <r>   -22.0075     0.0000    16.0000 </r>
       <r>   -21.8260     0.0000    16.0000 </r>
       <r>   -21.6445     0.0000    16.0000 </r>
       <r>   -21.4630     0.0000    16.0000 </r>
       <r>   -21.2816     0.0000    16.0000 </r>
       <r>   -21.1001     0.0000    16.0000 </r>
       <r>   -20.9186     0.0000    16.0000 </r>
       <r>   -20.7371     0.0000    16.0000 </r>
       <r>   -20.5557     0.0000    16.0000 </r>
       <r>   -20.3742     0.0000    16.0000 </r>
       <r>   -20.1927     0.0000    16.0000 </r>
       <r>   -20.0112     0.0000    16.0000 </r>
       <r>   -19.8297     0.0000    16.0000 </r>
       <r>   -19.6483     0.0000    16.0000 </r>
       <r>   -19.4668     0.0000    16.0000 </r>
       <r>   -19.2853     0.0000    16.0000 </r>
       <r>   -19.1038     0.0000    16.0000 </r>
       <r>   -18.9223     0.0000    20.0000 </r>
       <r>   -18.7409     0.0000    80.0000 </r>
       <r>   -18.5594     0.0000   144.0000 </r>
       <r>   -18.3779     0.0000   172.0000 </r>
       <r>   -18.1964     0.0000   176.0000 </r>
       <r>   -18.0150     0.0000   176.0000 </r>
       <r>   -17.8335     0.0000   176.0000 </r>
       <r>   -17.6520     0.0000   176.0000 </r>
       <r>   -17.4705     0.0000   176.0000 </r>
       <r>   -17.2890     0.0000   176.0000 </r>
       <r>   -17.1076     0.0000   176.0000 </r>
       <r>   -16.9261     0.0000   176.0000 </r>
       <r>   -16.7446     0.0000   176.0000 </r>
       <r>   -16.5631     0.0000   176.0000 </r>
       <r>   -16.3816     0.0000   176.0000 </r>
       <r>   -16.2002     0.0000   176.0000 </r>
       <r>   -16.0187     0.0000   176.0000 </r>
       <r>   -15.8372     0.0000   176.0000 </r>
       <r>   -15.6557     0.0000   176.0000 </r>
       <r>   -15.4743     0.0000   176.0000 </r>
       <r>   -15.2928     0.0000   176.0000 </r>
       <r>   -15.1113     0.0000   176.0000 </r>
       <r>   -14.9298     0.0000   176.0000 </r>
       <r>   -14.7483     0.0000   176.0000 </r>
       <r>   -14.5669     0.0000   176.0000 </r>
       <r>   -14.3854     0.0000   176.0000 </r>
       <r>   -14.2039     0.0000   176.0000 </r>
       <r>   -14.0224     0.0000   176.0000 </r>
       <r>   -13.8409     0.0000   176.0000 </r>
       <r>   -13.6595     0.0000   176.0000 </r>
       <r>   -13.4780     0.0000   178.0000 </r>
       <r>   -13.2965     0.0000   178.0000 </r>
       <r>   -13.1150     0.0000   182.0000 </r>
       <r>   -12.9336     0.0000   188.0000 </r>
       <r>   -12.7521     0.0000   196.0000 </r>
       <r>   -12.5706   118.8668   200.9496 </r>
       <r>   -12.3891     0.0000   206.0000 </r>
       <r>   -12.2076     0.0000   208.0000 </r>
       <r>   -12.0262     0.0000   208.0000 </r>
       <r>   -11.8447     0.0000   208.0000 </r>
       <r>   -11.6632     0.0000   208.0000 </r>
       <r>   -11.4817     0.0000   208.0000 </r>
       <r>   -11.3003     0.0000   208.0000 </r>
       <r>   -11.1188     0.0000   208.0000 </r>
       <r>   -10.9373     0.0000   208.0000 </r>
       <r>   -10.7558     0.0000   208.0000 </r>
       <r>   -10.5743     0.0000   208.0000 </r>
       <r>   -10.3929     0.0000   208.0000 </r>
       <r>   -10.2114     0.0000   208.0000 </r>
       <r>   -10.0299     0.0000   208.0000 </r>
       <r>    -9.8484     0.0000   208.0000 </r>
       <r>    -9.6669     0.0000   208.0000 </r>
       <r>    -9.4855     7.0172   208.1425 </r>
       <r>    -9.3040     0.0000   210.0000 </r>
       <r>    -9.1225    13.7463   210.6234 </r>
       <r>    -8.9410     5.0528   212.2654 </r>
       <r>    -8.7596    22.8020   214.7267 </r>
       <r>    -8.5781    23.2895   218.3082 </r>
       <r>    -8.3966    27.1835   221.9572 </r>
       <r>    -8.2151     0.0000   224.0000 </r>
       <r>    -8.0336    35.5362   230.2557 </r>
       <r>    -7.8522    15.2947   235.0377 </r>
       <r>    -7.6707    26.5381   237.6277 </r>
       <r>    -7.4892     0.0000   240.0000 </r>
       <r>    -7.3077     0.0000   240.0000 </r>
       <r>    -7.1262     0.0000   240.0000 </r>
       <r>    -6.9448     0.0000   240.0000 </r>
       <r>    -6.7633     0.0000   240.0000 </r>
       <r>    -6.5818     0.0000   240.0000 </r>
       <r>    -6.4003     5.5825   240.1096 </r>
       <r>    -6.2189    27.9273   244.1184 </r>
       <r>    -6.0374    26.2466   247.1993 </r>
       <r>    -5.8559    21.4911   250.4223 </r>
       <r>    -5.6744    20.7747   255.3707 </r>
       <r>    -5.4929    20.9719   259.5015 </r>
       <r>    -5.3115    13.5012   262.7136 </r>
       <r>    -5.1300     2.4362   263.9808 </r>
       <r>    -4.9485    13.4058   265.3340 </r>
       <r>    -4.7670     6.6469   267.3636 </r>
       <r>    -4.5855     4.5921   268.5848 </r>
       <r>    -4.4041     8.1714   269.7222 </r>
       <r>    -4.2226     4.9637   271.2303 </r>
       <r>    -4.0411     1.9510   271.7527 </r>
       <r>    -3.8596     0.5374   271.9784 </r>
       <r>    -3.6782     0.0000   272.0000 </r>
       <r>    -3.4967     0.0000   272.0000 </r>
       <r>    -3.3152     0.0000   272.0000 </r>
       <r>    -3.1337     0.0000   272.0000 </r>
       <r>    -2.9522     0.0000   272.0000 </r>
       <r>    -2.7708     0.0000   272.0000 </r>
       <r>    -2.5893     0.0000   272.0000 </r>
       <r>    -2.4078     0.0000   272.0000 </r>
       <r>    -2.2263     0.0000   272.0000 </r>
       <r>    -2.0448     0.0000   272.0000 </r>
       <r>    -1.8634     0.0000   272.0000 </r>
       <r>    -1.6819     0.0000   272.0000 </r>
       <r>    -1.5004     0.0000   272.0000 </r>
       <r>    -1.3189     6.1260   272.3416 </r>
       <r>    -1.1375     8.2804   273.7419 </r>
       <r>    -0.9560     7.8158   275.0536 </r>
       <r>    -0.7745    15.1980   277.3337 </r>
       <r>    -0.5930    13.1426   279.4347 </r>
       <r>    -0.4115    28.9745   283.1295 </r>
       <r>    -0.2301    31.2545   288.4881 </r>
       <r>    -0.0486    32.3489   295.3035 </r>
       <r>     0.1329    38.4747   301.5161 </r>
       <r>     0.3144    40.2233   309.1444 </r>
       <r>     0.4959    31.8140   315.2232 </r>
       <r>     0.6773    44.2102   321.5455 </r>
       <r>     0.8588    46.2527   328.1728 </r>
       <r>     1.0403    52.1411   337.4342 </r>
       <r>     1.2218    38.2786   344.7617 </r>
       <r>     1.4032    54.3944   353.7028 </r>
       <r>     1.5847    41.3303   361.6978 </r>
       <r>     1.7662    43.0072   370.0101 </r>
       <r>     1.9477    36.7851   377.1228 </r>
       <r>     2.1292    54.1424   386.2221 </r>
       <r>     2.3106    60.4666   396.5581 </r>
       <r>     2.4921    56.0320   408.2237 </r>
       <r>     2.6736    63.2108   419.4919 </r>
       <r>     2.8551    77.1239   430.3252 </r>
       <r>     3.0365    57.6688   441.3609 </r>
       <r>     3.2180    31.3523   448.4059 </r>
       <r>     3.3995    58.6686   455.7831 </r>
       <r>     3.5810    20.1775   460.2489 </r>
       <r>     3.7625     9.9235   462.7849 </r>
       <r>     3.9439     2.4379   463.8836 </r>
       <r>     4.1254     0.0000   464.0000 </r>
       <r>     4.3069     0.0000   464.0000 </r>
       <r>     4.4884     0.0000   464.0000 </r>
       <r>     4.6699     0.0000   464.0000 </r>
       <r>     4.8513     0.0000   464.0000 </r>
       <r>     5.0328     0.0051   464.0000 </r>
       <r>     5.2143     4.2767   464.3029 </r>
       <r>     5.3958    10.2391   465.6430 </r>
       <r>     5.5772     9.8082   467.5746 </r>
       <r>     5.7587    24.9019   470.8673 </r>
       <r>     5.9402    13.9665   474.1766 </r>
       <r>     6.1217    13.1707   476.6146 </r>
       <r>     6.3032    14.2328   479.0763 </r>
       <r>     6.4846    15.7446   481.8012 </r>
       <r>     6.6661    17.1690   484.7812 </r>
       <r>     6.8476    20.3863   488.1222 </r>
       <r>     7.0291    22.5326   492.0529 </r>
       <r>     7.2106    22.7520   496.1650 </r>
       <r>     7.3920    31.2370   501.5048 </r>
       <r>     7.5735    33.8442   507.2507 </r>
       <r>     7.7550    34.2189   513.6412 </r>
       <r>     7.9365    33.6692   520.0290 </r>
       <r>     8.1179    27.0016   525.4401 </r>
       <r>     8.2994    26.9420   530.2011 </r>
       <r>     8.4809    33.2292   535.7624 </r>
       <r>     8.6624    34.4156   542.3336 </r>
       <r>     8.8439    32.4790   548.4391 </r>
       <r>     9.0253    23.2994   553.4608 </r>
       <r>     9.2068    15.0536   557.0134 </r>
       <r>     9.3883     5.3858   558.8869 </r>
       <r>     9.5698     3.1430   559.9285 </r>
       <r>     9.7513     0.0000   560.0000 </r>
       <r>     9.9327     0.0000   560.0000 </r>
       <r>    10.1142     0.0000   560.0000 </r>
       <r>    10.2957     0.0000   560.0000 </r>
       <r>    10.4772     0.0000   560.0000 </r>
       <r>    10.6586     0.0000   560.0000 </r>
       <r>    10.8401     0.0000   560.0000 </r>
       <r>    11.0216     0.0000   560.0000 </r>
       <r>    11.2031     0.0000   560.0000 </r>
       <r>    11.3846     0.0000   560.0000 </r>
       <r>    11.5660     0.0000   560.0000 </r>
       <r>    11.7475     0.0000   560.0000 </r>
       <r>    11.9290     0.0000   560.0000 </r>
       <r>    12.1105     0.0000   560.0000 </r>
      </set>
     </set>
    </array>
   </total>
  </dos>
 </calculation>
 <structure name="finalpos" >
  <crystal>
   <varray name="basis" >
    <v>      11.23772576      -0.05282606       0.02754956 </v>
    <v>      -0.04629604       9.56640791       0.02141213 </v>
    <v>       0.02596750       0.02880901      11.24515195 </v>
   </varray>
   <i name="volume">   1208.86499008 </i>
   <varray name="rec_basis" >
    <v>       0.08898851       0.00043112      -0.00020660 </v>
    <v>       0.00049206       0.10453543      -0.00026895 </v>
    <v>      -0.00021895      -0.00020010       0.08892823 </v>
   </varray>
  </crystal>
  <varray name="positions" >
   <v>       0.16546999       0.97169773       0.21251421 </v>
   <v>       0.89596949       0.02564635       0.31543406 </v>
   <v>       0.43055246       0.02594516       0.23278916 </v>
   <v>       0.15028973       0.01987789       0.95205585 </v>
   <v>       0.37029685       0.00316092       0.95382664 </v>
   <v>       0.13932612       0.02667888       0.57726937 </v>
   <v>       0.37211570       0.00665333       0.69314562 </v>
   <v>       0.61632152      -0.00564520       0.70019329 </v>
   <v>       0.62724239       0.00017978       0.45483537 </v>
   <v>       0.62147329      -0.00045440       0.94868462 </v>
   <v>       0.88288812      -0.00252344       0.94425549 </v>
   <v>       0.86505805      -0.00294975       0.68331116 </v>
   <v>       0.00515884       0.31040355       0.06059233 </v>
   <v>       0.25004942       0.69615558       0.06244343 </v>
   <v>       0.25344404       0.29375219       0.30975166 </v>
   <v>       0.50344174       0.70033425       0.32024310 </v>
   <v>       0.49922349       0.30667200       0.06373196 </v>
   <v>       0.75127873       0.68778348       0.06582490 </v>
   <v>       0.74993480       0.30779387       0.32103683 </v>
   <v>       0.00873623       0.69857379       0.30936613 </v>
   <v>      -0.00091119       0.31311335       0.56360399 </v>
   <v>       0.25518416       0.70426523       0.56683290 </v>
   <v>       0.25522998       0.30209357       0.81633654 </v>
   <v>       0.49903159       0.69249182       0.81866975 </v>
   <v>       0.49809183       0.30415969       0.56542493 </v>
   <v>       0.75000376       0.68584564       0.56523644 </v>
   <v>       0.75242324       0.31775506       0.81666173 </v>
   <v>      -0.00197680       0.68635065       0.80950469 </v>
   <v>       0.24879241       0.35663924       0.05989466 </v>
   <v>      -0.00188969       0.65310328       0.05779729 </v>
   <v>       0.50303663       0.33840329       0.31322057 </v>
   <v>       0.25414637       0.66461576       0.31146397 </v>
   <v>       0.74787533       0.32821490       0.05874688 </v>
   <v>       0.50304430       0.66085241       0.06088732 </v>
   <v>       0.99858839       0.28562582       0.30840981 </v>
   <v>       0.75390016       0.66661863       0.31503686 </v>
   <v>       0.24734406       0.28157104       0.56358441 </v>
   <v>      -0.00137319       0.67791724       0.56201004 </v>
   <v>       0.50065482       0.35427051       0.81340510 </v>
   <v>       0.25428667       0.65232241       0.81276923 </v>
   <v>       0.74916577       0.36106559       0.56282584 </v>
   <v>       0.50192231       0.64584117       0.56302593 </v>
   <v>       0.99645644       0.35792255       0.80807465 </v>
   <v>       0.75115634       0.63165811       0.81387967 </v>
   <v>       0.49931268       0.08876008       0.05097455 </v>
   <v>       0.24597079       0.91050340       0.05642587 </v>
   <v>       0.27903654       0.09085206       0.27740364 </v>
   <v>       0.02035239       0.90706115       0.28960326 </v>
   <v>       0.01024069       0.09921976       0.02170969 </v>
   <v>       0.75190815       0.90227468       0.02875970 </v>
   <v>       0.74559087       0.09689194       0.35385011 </v>
   <v>       0.52031056       0.91162905       0.33794958 </v>
   <v>       0.52749028       0.09115466       0.58286497 </v>
   <v>       0.26562251       0.91055752       0.59214176 </v>
   <v>       0.27159928       0.08981952       0.83586364 </v>
   <v>      -0.04205152       0.90130173       0.80993841 </v>
   <v>       0.98269885       0.10039912       0.58971675 </v>
   <v>       0.73203436       0.90937119       0.58775399 </v>
   <v>       0.75415746       0.08256546       0.82295094 </v>
   <v>       0.51327143       0.91491576       0.82608474 </v>
  </varray>
 </structure>
</modeling>
