<?xml version="1.0" encoding="ISO-8859-1"?>
<modeling>
 <generator>
  <i name="program" type="string">vasp </i>
  <i name="version" type="string">5.4.4.18Apr17-6-g9f103f2a35  </i>
  <i name="subversion" type="string">(build Jul 31 2017 11:33:29) complex            parallel </i>
  <i name="platform" type="string">LinuxIFC </i>
  <i name="date" type="string">2021 09 22 </i>
  <i name="time" type="string">11:16:13 </i>
 </generator>
 <incar>
  <i type="string" name="SYSTEM"> La2O2S</i>
  <i type="string" name="PREC">normal</i>
  <i type="int" name="NELMIN">     4</i>
  <i type="int" name="IBRION">     2</i>
  <i type="int" name="NFREE">    10</i>
  <i name="EDIFF">      0.00000100</i>
  <i name="EDIFFG">     -0.01000000</i>
  <i type="int" name="NSW">   200</i>
  <i type="int" name="ISIF">     3</i>
  <i name="ENCUT">    600.00000000</i>
  <i name="ENAUG">    900.00000000</i>
  <i type="int" name="ISMEAR">    -5</i>
  <i type="logical" name="LWAVE"> F  </i>
  <i type="logical" name="LCHARG"> F  </i>
  <v type="int" name="KPOINT_BSE">    -1     0     0     0</v>
 </incar>
 <structure name="primitive_cell" >
  <crystal>
   <varray name="basis" >
    <v>      11.17850000       0.00000000       0.00000000 </v>
    <v>       0.00000000       9.57460000       0.00000000 </v>
    <v>       0.00000000       0.00000000      11.18240000 </v>
   </varray>
   <i name="volume">   1196.84853820 </i>
   <varray name="rec_basis" >
    <v>       0.08945744       0.00000000       0.00000000 </v>
    <v>       0.00000000       0.10444301       0.00000000 </v>
    <v>       0.00000000       0.00000000       0.08942624 </v>
   </varray>
  </crystal>
  <varray name="positions" >
   <v>       0.12539000      -0.00016000      -0.06313000 </v>
   <v>       0.25013000       0.07798000      -0.18754000 </v>
   <v>       0.00013000      -0.07798000      -0.18754000 </v>
   <v>       0.24987000      -0.07798000       0.06246000 </v>
   <v>      -0.00013000       0.07798000       0.06246000 </v>
   <v>      -0.12461000       0.00017000      -0.06313000 </v>
   <v>       0.12461000      -0.00016000      -0.31313000 </v>
   <v>       0.24987000       0.29519000      -0.18718000 </v>
   <v>      -0.00013000      -0.29519000      -0.18718000 </v>
   <v>       0.25013000      -0.29519000       0.06281000 </v>
   <v>       0.00013000       0.29519000       0.06281000 </v>
   <v>       0.24995000      -0.32677000      -0.18714000 </v>
   <v>      -0.00005000       0.32677000      -0.18714000 </v>
   <v>       0.25005000       0.32677000       0.06286000 </v>
   <v>       0.00005000      -0.32677000       0.06286000 </v>
   <v>       0.37461000       0.00017000      -0.31313000 </v>
   <v>      -0.12539000       0.00017000      -0.31313000 </v>
   <v>      -0.12539000       0.00017000       0.18687000 </v>
   <v>       0.24987000      -0.07798000      -0.43754000 </v>
   <v>      -0.49987000      -0.07798000      -0.18754000 </v>
   <v>       0.49987000       0.07798000       0.06246000 </v>
   <v>      -0.00013000       0.07798000      -0.43754000 </v>
   <v>      -0.24987000       0.07798000      -0.18754000 </v>
   <v>       0.25013000       0.07798000       0.31246000 </v>
   <v>      -0.25013000      -0.07798000       0.06246000 </v>
   <v>       0.00013000      -0.07798000       0.31246000 </v>
   <v>       0.25013000      -0.29519000      -0.43719000 </v>
   <v>       0.49987000      -0.29519000      -0.18718000 </v>
   <v>       0.00013000       0.29519000      -0.43719000 </v>
   <v>      -0.49987000       0.29519000       0.06281000 </v>
   <v>      -0.25013000       0.29519000      -0.18718000 </v>
   <v>      -0.24987000      -0.29519000       0.06281000 </v>
   <v>       0.24987000       0.29519000       0.31282000 </v>
   <v>      -0.00013000      -0.29519000       0.31282000 </v>
   <v>       0.25005000       0.32677000      -0.43714000 </v>
   <v>       0.00005000      -0.32677000      -0.43714000 </v>
   <v>       0.49995000       0.32677000      -0.18714000 </v>
   <v>      -0.49995000      -0.32677000       0.06286000 </v>
   <v>      -0.25005000      -0.32677000      -0.18714000 </v>
   <v>      -0.24995000       0.32677000       0.06286000 </v>
   <v>       0.24995000      -0.32677000       0.31286000 </v>
   <v>      -0.00005000       0.32677000       0.31286000 </v>
   <v>      -0.37461000      -0.00016000      -0.06313000 </v>
   <v>       0.49987000       0.07798000      -0.43754000 </v>
   <v>      -0.25013000      -0.07798000      -0.43754000 </v>
   <v>      -0.49987000      -0.07798000       0.31246000 </v>
   <v>      -0.24987000       0.07798000       0.31246000 </v>
   <v>      -0.37539000      -0.00016000       0.18687000 </v>
   <v>      -0.37539000      -0.00016000      -0.31313000 </v>
   <v>      -0.49987000       0.29519000      -0.43719000 </v>
   <v>      -0.24987000      -0.29519000      -0.43719000 </v>
   <v>       0.49987000      -0.29519000       0.31282000 </v>
   <v>      -0.25013000       0.29519000       0.31282000 </v>
   <v>      -0.49995000      -0.32677000      -0.43714000 </v>
   <v>      -0.24995000       0.32677000      -0.43714000 </v>
   <v>       0.49995000       0.32677000       0.31286000 </v>
   <v>      -0.25005000      -0.32677000       0.31286000 </v>
  </varray>
 </structure>
 <varray name="primitive_index" >
  <v type="int" >        1 </v>
  <v type="int" >       52 </v>
  <v type="int" >       53 </v>
  <v type="int" >       43 </v>
  <v type="int" >       46 </v>
  <v type="int" >        8 </v>
  <v type="int" >        5 </v>
  <v type="int" >       20 </v>
  <v type="int" >       25 </v>
  <v type="int" >       11 </v>
  <v type="int" >       10 </v>
  <v type="int" >       37 </v>
  <v type="int" >       40 </v>
  <v type="int" >       26 </v>
  <v type="int" >       27 </v>
  <v type="int" >        6 </v>
  <v type="int" >        2 </v>
  <v type="int" >        4 </v>
  <v type="int" >       51 </v>
  <v type="int" >       57 </v>
  <v type="int" >       42 </v>
  <v type="int" >       54 </v>
  <v type="int" >       56 </v>
  <v type="int" >       44 </v>
  <v type="int" >       47 </v>
  <v type="int" >       45 </v>
  <v type="int" >       19 </v>
  <v type="int" >       21 </v>
  <v type="int" >       18 </v>
  <v type="int" >       14 </v>
  <v type="int" >       24 </v>
  <v type="int" >       15 </v>
  <v type="int" >       12 </v>
  <v type="int" >       17 </v>
  <v type="int" >       34 </v>
  <v type="int" >       35 </v>
  <v type="int" >       36 </v>
  <v type="int" >       31 </v>
  <v type="int" >       41 </v>
  <v type="int" >       30 </v>
  <v type="int" >       29 </v>
  <v type="int" >       32 </v>
  <v type="int" >        7 </v>
  <v type="int" >       50 </v>
  <v type="int" >       55 </v>
  <v type="int" >       49 </v>
  <v type="int" >       48 </v>
  <v type="int" >        3 </v>
  <v type="int" >        9 </v>
  <v type="int" >       22 </v>
  <v type="int" >       23 </v>
  <v type="int" >       13 </v>
  <v type="int" >       16 </v>
  <v type="int" >       39 </v>
  <v type="int" >       38 </v>
  <v type="int" >       28 </v>
  <v type="int" >       33 </v>
 </varray>
 <kpoints>
  <generation param="Gamma">
   <v type="int" name="divisions">       2        2        2 </v>
   <v name="usershift">      0.00000000       0.00000000       0.00000000 </v>
   <v name="genvec1">      0.50000000       0.00000000       0.00000000 </v>
   <v name="genvec2">      0.00000000       0.50000000       0.00000000 </v>
   <v name="genvec3">      0.00000000       0.00000000       0.50000000 </v>
   <v name="shift">      0.00000000       0.00000000       0.00000000 </v>
  </generation>
  <varray name="kpointlist" >
   <v>       0.00000000       0.00000000       0.00000000 </v>
   <v>       0.50000000       0.00000000       0.00000000 </v>
   <v>       0.00000000       0.50000000       0.00000000 </v>
   <v>       0.50000000       0.50000000       0.00000000 </v>
   <v>       0.00000000       0.00000000       0.50000000 </v>
   <v>       0.50000000       0.00000000       0.50000000 </v>
   <v>       0.00000000       0.50000000       0.50000000 </v>
   <v>       0.50000000       0.50000000       0.50000000 </v>
  </varray>
  <varray name="weights" >
   <v>       0.12500000 </v>
   <v>       0.12500000 </v>
   <v>       0.12500000 </v>
   <v>       0.12500000 </v>
   <v>       0.12500000 </v>
   <v>       0.12500000 </v>
   <v>       0.12500000 </v>
   <v>       0.12500000 </v>
  </varray>
  <varray name="tetrahedronlist"  type="int" >
   <v type="int" >        2        1        2        4        5 </v>
   <v type="int" >        2        1        3        4        5 </v>
   <v type="int" >        2        3        4        5        7 </v>
   <v type="int" >        2        2        4        5        6 </v>
   <v type="int" >        2        4        5        6        8 </v>
   <v type="int" >        2        4        5        7        8 </v>
   <v type="int" >        2        1        2        3        6 </v>
   <v type="int" >        2        2        3        4        6 </v>
   <v type="int" >        2        3        4        6        8 </v>
   <v type="int" >        2        1        3        5        6 </v>
   <v type="int" >        2        3        5        6        7 </v>
   <v type="int" >        2        3        6        7        8 </v>
   <v type="int" >        2        2        3        4        7 </v>
   <v type="int" >        2        1        2        3        7 </v>
   <v type="int" >        2        1        2        5        7 </v>
   <v type="int" >        2        2        4        7        8 </v>
   <v type="int" >        2        2        6        7        8 </v>
   <v type="int" >        2        2        5        6        7 </v>
   <v type="int" >        2        1        3        4        8 </v>
   <v type="int" >        2        1        2        4        8 </v>
   <v type="int" >        2        1        2        6        8 </v>
   <v type="int" >        2        1        3        7        8 </v>
   <v type="int" >        2        1        5        7        8 </v>
   <v type="int" >        2        1        5        6        8 </v>
  </varray>
  <i name="volumeweight">      0.02083333 </i>
 </kpoints>
 <parameters>
  <separator name="general" >
   <i type="string" name="SYSTEM">La2O2S</i>
   <i type="logical" name="LCOMPAT"> F  </i>
  </separator>
  <separator name="electronic" >
   <i type="string" name="PREC">normal</i>
   <i name="ENMAX">    600.00000000</i>
   <i name="ENAUG">    900.00000000</i>
   <i name="EDIFF">      0.00000100</i>
   <i type="int" name="IALGO">    38</i>
   <i type="int" name="IWAVPR">    11</i>
   <i type="int" name="NBANDS">   280</i>
   <i name="NELECT">    452.00000000</i>
   <i type="int" name="TURBO">     0</i>
   <i type="int" name="IRESTART">     0</i>
   <i type="int" name="NREBOOT">     0</i>
   <i type="int" name="NMIN">     0</i>
   <i name="EREF">      0.00000000</i>
   <separator name="electronic smearing" >
    <i type="int" name="ISMEAR">    -5</i>
    <i name="SIGMA">      0.20000000</i>
    <i name="KSPACING">      0.50000000</i>
    <i type="logical" name="KGAMMA"> T  </i>
   </separator>
   <separator name="electronic projectors" >
    <i type="logical" name="LREAL"> F  </i>
    <v name="ROPT">      0.00000000      0.00000000      0.00000000      0.00000000      0.00000000</v>
    <i type="int" name="LMAXPAW">  -100</i>
    <i type="int" name="LMAXMIX">     2</i>
    <i type="logical" name="NLSPLINE"> F  </i>
   </separator>
   <separator name="electronic startup" >
    <i type="int" name="ISTART">     0</i>
    <i type="int" name="ICHARG">     2</i>
    <i type="int" name="INIWAV">     1</i>
   </separator>
   <separator name="electronic spin" >
    <i type="int" name="ISPIN">     1</i>
    <i type="logical" name="LNONCOLLINEAR"> F  </i>
    <v name="MAGMOM">      1.00000000      1.00000000      1.00000000      1.00000000      1.00000000      1.00000000      1.00000000      1.00000000      1.00000000      1.00000000      1.00000000      1.00000000      1.00000000      1.00000000      1.00000000      1.00000000      1.00000000      1.00000000      1.00000000      1.00000000
      1.00000000      1.00000000      1.00000000      1.00000000      1.00000000      1.00000000      1.00000000      1.00000000      1.00000000      1.00000000      1.00000000      1.00000000      1.00000000      1.00000000      1.00000000      1.00000000      1.00000000      1.00000000      1.00000000      1.00000000
      1.00000000      1.00000000      1.00000000      1.00000000      1.00000000      1.00000000      1.00000000      1.00000000      1.00000000      1.00000000      1.00000000      1.00000000      1.00000000      1.00000000      1.00000000      1.00000000      1.00000000</v>
    <i name="NUPDOWN">     -1.00000000</i>
    <i type="logical" name="LSORBIT"> F  </i>
    <v name="SAXIS">      0.00000000      0.00000000      1.00000000</v>
    <i type="logical" name="LSPIRAL"> F  </i>
    <v name="QSPIRAL">      0.00000000      0.00000000      0.00000000</v>
    <i type="logical" name="LZEROZ"> F  </i>
   </separator>
   <separator name="electronic exchange-correlation" >
    <i type="logical" name="LASPH"> F  </i>
    <i type="logical" name="LMETAGGA"> F  </i>
   </separator>
   <separator name="electronic convergence" >
    <i type="int" name="NELM">    60</i>
    <i type="int" name="NELMDL">    -5</i>
    <i type="int" name="NELMIN">     4</i>
    <i name="ENINI">    600.00000000</i>
    <separator name="electronic convergence detail" >
     <i type="logical" name="LDIAG"> T  </i>
     <i type="logical" name="LSUBROT"> F  </i>
     <i name="WEIMIN">      0.00100000</i>
     <i name="EBREAK">      0.00000000</i>
     <i name="DEPER">      0.30000000</i>
     <i type="int" name="NRMM">     4</i>
     <i name="TIME">      0.40000000</i>
    </separator>
   </separator>
   <separator name="electronic mixer" >
    <i name="AMIX">      0.40000000</i>
    <i name="BMIX">      1.00000000</i>
    <i name="AMIN">      0.10000000</i>
    <i name="AMIX_MAG">      1.60000000</i>
    <i name="BMIX_MAG">      1.00000000</i>
    <separator name="electronic mixer details" >
     <i type="int" name="IMIX">     4</i>
     <i type="logical" name="MIXFIRST"> F  </i>
     <i type="int" name="MAXMIX">   -45</i>
     <i name="WC">    100.00000000</i>
     <i type="int" name="INIMIX">     1</i>
     <i type="int" name="MIXPRE">     1</i>
     <i type="int" name="MREMOVE">     5</i>
    </separator>
   </separator>
   <separator name="electronic dipolcorrection" >
    <i type="logical" name="LDIPOL"> F  </i>
    <i type="logical" name="LMONO"> F  </i>
    <i type="int" name="IDIPOL">     0</i>
    <i name="EPSILON">      1.00000000</i>
    <v name="DIPOL">   -100.00000000   -100.00000000   -100.00000000</v>
    <i name="EFIELD">      0.00000000</i>
   </separator>
  </separator>
  <separator name="grids" >
   <i type="int" name="NGX">    70</i>
   <i type="int" name="NGY">    60</i>
   <i type="int" name="NGZ">    70</i>
   <i type="int" name="NGXF">   140</i>
   <i type="int" name="NGYF">   120</i>
   <i type="int" name="NGZF">   140</i>
   <i type="logical" name="ADDGRID"> F  </i>
  </separator>
  <separator name="ionic" >
   <i type="int" name="NSW">   200</i>
   <i type="int" name="IBRION">     2</i>
   <i type="int" name="MDALGO">     0</i>
   <i type="int" name="ISIF">     3</i>
   <i name="PSTRESS">      0.00000000</i>
   <i name="EDIFFG">     -0.01000000</i>
   <i type="int" name="NFREE">    10</i>
   <i name="POTIM">      0.50000000</i>
   <i name="SMASS">     -3.00000000</i>
   <i name="SCALEE">      1.00000000</i>
  </separator>
  <separator name="ionic md" >
   <i name="TEBEG">      0.00010000</i>
   <i name="TEEND">      0.00010000</i>
   <i type="int" name="NBLOCK">     1</i>
   <i type="int" name="KBLOCK">   200</i>
   <i type="int" name="NPACO">   256</i>
   <i name="APACO">     16.00000000</i>
  </separator>
  <separator name="symmetry" >
   <i type="int" name="ISYM">     2</i>
   <i name="SYMPREC">      0.00001000</i>
  </separator>
  <separator name="dos" >
   <i type="int" name="LORBIT">     0</i>
   <v name="RWIGS">     -1.00000000     -1.00000000     -1.00000000     -1.00000000     -1.00000000</v>
   <i type="int" name="NEDOS">   301</i>
   <i name="EMIN">     10.00000000</i>
   <i name="EMAX">    -10.00000000</i>
   <i name="EFERMI">      0.00000000</i>
  </separator>
  <separator name="writing" >
   <i type="int" name="NWRITE">     2</i>
   <i type="logical" name="LWAVE"> F  </i>
   <i type="logical" name="LDOWNSAMPLE"> F  </i>
   <i type="logical" name="LCHARG"> F  </i>
   <i type="logical" name="LPARD"> F  </i>
   <i type="logical" name="LVTOT"> F  </i>
   <i type="logical" name="LVHAR"> F  </i>
   <i type="logical" name="LELF"> F  </i>
   <i type="logical" name="LOPTICS"> F  </i>
   <v name="STM">      0.00000000      0.00000000      0.00000000      0.00000000      0.00000000      0.00000000      0.00000000</v>
  </separator>
  <separator name="performance" >
   <i type="int" name="NPAR">    28</i>
   <i type="int" name="NSIM">     4</i>
   <i type="int" name="NBLK">    -1</i>
   <i type="logical" name="LPLANE"> T  </i>
   <i type="logical" name="LSCALAPACK"> T  </i>
   <i type="logical" name="LSCAAWARE"> F  </i>
   <i type="logical" name="LSCALU"> F  </i>
   <i type="logical" name="LASYNC"> F  </i>
   <i type="logical" name="LORBITALREAL"> F  </i>
  </separator>
  <separator name="miscellaneous" >
   <i type="int" name="IDIOT">     3</i>
   <i type="int" name="ISPECIAL">     0</i>
   <i type="logical" name="LMUSIC"> F  </i>
   <v name="POMASS">      7.01000000     24.30500000    208.98000000     32.06600000     16.00000000</v>
   <v name="DARWINR">      0.00000000      0.00000000      0.00000000      0.00000000      0.00000000</v>
   <v name="DARWINV">      1.00000000      1.00000000      1.00000000      1.00000000      1.00000000</v>
   <i type="logical" name="LCORR"> T  </i>
  </separator>
  <i type="logical" name="GGA_COMPAT"> T  </i>
  <i type="logical" name="LBERRY"> F  </i>
  <i type="int" name="ICORELEVEL">     0</i>
  <i type="logical" name="LDAU"> F  </i>
  <i type="int" name="I_CONSTRAINED_M">     0</i>
  <separator name="electronic exchange-correlation" >
   <i type="string" name="GGA">--</i>
   <i type="int" name="VOSKOWN">     0</i>
   <i type="logical" name="LHFCALC"> F  </i>
   <i type="string" name="PRECFOCK"></i>
   <i type="logical" name="LSYMGRAD"> F  </i>
   <i type="logical" name="LHFONE"> F  </i>
   <i type="logical" name="LRHFCALC"> F  </i>
   <i type="logical" name="LTHOMAS"> F  </i>
   <i type="logical" name="LMODELHF"> F  </i>
   <i name="ENCUT4O">     -1.00000000</i>
   <i type="int" name="EXXOEP">     0</i>
   <i type="int" name="FOURORBIT">     0</i>
   <i name="AEXX">      0.00000000</i>
   <i name="HFALPHA">      0.00000000</i>
   <i name="MCALPHA">      0.00000000</i>
   <i name="ALDAX">      1.00000000</i>
   <i name="AGGAX">      1.00000000</i>
   <i name="ALDAC">      1.00000000</i>
   <i name="AGGAC">      1.00000000</i>
   <i type="int" name="NKREDX">     1</i>
   <i type="int" name="NKREDY">     1</i>
   <i type="int" name="NKREDZ">     1</i>
   <i type="logical" name="SHIFTRED"> F  </i>
   <i type="logical" name="ODDONLY"> F  </i>
   <i type="logical" name="EVENONLY"> F  </i>
   <i type="int" name="LMAXFOCK">     0</i>
   <i type="int" name="NMAXFOCKAE">     0</i>
   <i type="logical" name="LFOCKAEDFT"> F  </i>
   <i name="HFSCREEN">      0.00000000</i>
   <i name="HFSCREENC">      0.00000000</i>
   <i type="int" name="NBANDSGWLOW">     0</i>
  </separator>
  <separator name="vdW DFT" >
   <i type="logical" name="LUSE_VDW"> F  </i>
   <i name="Zab_VDW">     -0.84910000</i>
   <i name="PARAM1">      0.12340000</i>
   <i name="PARAM2">      1.00000000</i>
   <i name="PARAM3">      0.00000000</i>
  </separator>
  <separator name="model GW" >
   <i type="int" name="MODEL_GW">     0</i>
   <i name="MODEL_EPS0">     12.59840567</i>
   <i name="MODEL_ALPHA">      1.00000000</i>
  </separator>
  <separator name="linear response parameters" >
   <i type="logical" name="LEPSILON"> F  </i>
   <i type="logical" name="LRPA"> F  </i>
   <i type="logical" name="LNABLA"> F  </i>
   <i type="logical" name="LVEL"> F  </i>
   <i type="int" name="KINTER">     0</i>
   <i name="CSHIFT">      0.10000000</i>
   <i name="OMEGAMAX">     -1.00000000</i>
   <i name="DEG_THRESHOLD">      0.00200000</i>
   <i name="RTIME">     -0.10000000</i>
   <i name="WPLASMAI">      0.00000000</i>
   <v name="DFIELD">      0.00000000      0.00000000      0.00000000</v>
   <v name="WPLASMA">      0.00000000      0.00000000      0.00000000      0.00000000      0.00000000      0.00000000      0.00000000      0.00000000      0.00000000</v>
  </separator>
  <separator name="orbital magnetization" >
   <i type="logical" name="NUCIND"> F  </i>
   <v name="MAGPOS">      0.00000000      0.00000000      0.00000000</v>
   <i type="logical" name="LNICSALL"> T  </i>
   <i type="logical" name="ORBITALMAG"> F  </i>
   <i type="logical" name="LMAGBLOCH"> F  </i>
   <i type="logical" name="LCHIMAG"> F  </i>
   <i type="logical" name="LGAUGE"> T  </i>
   <i type="int" name="MAGATOM">     0</i>
   <v name="MAGDIPOL">      0.00000000      0.00000000      0.00000000</v>
   <v name="AVECCONST">      0.00000000      0.00000000      0.00000000</v>
  </separator>
  <separator name="response functions" >
   <i type="logical" name="LADDER"> F  </i>
   <i type="logical" name="LRPAFORCE"> F  </i>
   <i type="logical" name="LFXC"> F  </i>
   <i type="logical" name="LHARTREE"> T  </i>
   <i type="int" name="IBSE">     0</i>
   <v type="int" name="KPOINT">    -1     0     0     0</v>
   <i type="logical" name="LTCTE"> F  </i>
   <i type="logical" name="LTETE"> F  </i>
   <i type="logical" name="LTRIPLET"> F  </i>
   <i type="logical" name="LFXCEPS"> F  </i>
   <i type="logical" name="LFXHEG"> F  </i>
   <i type="int" name="NATURALO">     2</i>
   <i type="logical" name="L2ORDER"> F  </i>
   <i type="logical" name="LMP2LT"> F  </i>
   <i type="logical" name="LUSEW"> F  </i>
   <i name="ENCUTGW">     -2.00000000</i>
   <i name="ENCUTGWSOFT">     -2.00000000</i>
   <i name="ENCUTLF">     -1.00000000</i>
   <i type="int" name="LMAXMP2">    -1</i>
   <i name="SCISSOR">      0.00000000</i>
   <i type="int" name="NOMEGA">     0</i>
   <i type="int" name="NOMEGAR">     0</i>
   <i type="int" name="NBANDSGW">    -1</i>
   <i type="int" name="NBANDSO">    -1</i>
   <i type="int" name="NBANDSV">    -1</i>
   <i type="int" name="NELM">     1</i>
   <i type="int" name="NELMHF">     1</i>
   <i type="int" name="DIM">     3</i>
   <i type="int" name="ANTIRES">     0</i>
   <i name="OMEGAMAX">    -30.00000000</i>
   <i name="OMEGAMIN">    -30.00000000</i>
   <i name="OMEGATL">   -200.00000000</i>
   <i type="int" name="OMEGAGRID">   140</i>
   <i name="CSHIFT">     -0.10000000</i>
   <i type="logical" name="SELFENERGY"> F  </i>
   <i type="logical" name="LSPECTRAL"> F  </i>
   <i type="logical" name="LSPECTRALGW"> F  </i>
   <i type="logical" name="LSINGLES"> F  </i>
   <i type="logical" name="LFERMIGW"> F  </i>
   <i type="logical" name="ODDONLYGW"> F  </i>
   <i type="logical" name="EVENONLYGW"> F  </i>
   <i type="int" name="NKREDLFX">     1</i>
   <i type="int" name="NKREDLFY">     1</i>
   <i type="int" name="NKREDLFZ">     1</i>
   <i type="int" name="MAXMEM">  2800</i>
   <i type="int" name="TELESCOPE">     0</i>
   <i type="int" name="TAUPAR">     1</i>
   <i type="int" name="OMEGAPAR">    -1</i>
   <i name="LAMBDA">      1.00000000</i>
  </separator>
  <separator name="External order field" >
   <i name="OFIELD_KAPPA">      0.00000000</i>
   <v name="OFIELD_K">      0.00000000      0.00000000      0.00000000</v>
   <i name="OFIELD_Q6_NEAR">      0.00000000</i>
   <i name="OFIELD_Q6_FAR">      0.00000000</i>
   <i name="OFIELD_A">      0.00000000</i>
  </separator>
 </parameters>
 <atominfo>
  <atoms>      57 </atoms>
  <types>       5 </types>
  <array name="atoms" >
   <dimension dim="1">ion</dimension>
   <field type="string">element</field>
   <field type="int">atomtype</field>
   <set>
    <rc><c>Li</c><c>   1</c></rc>
    <rc><c>Li</c><c>   1</c></rc>
    <rc><c>Mg</c><c>   2</c></rc>
    <rc><c>Mg</c><c>   2</c></rc>
    <rc><c>Mg</c><c>   2</c></rc>
    <rc><c>Mg</c><c>   2</c></rc>
    <rc><c>Mg</c><c>   2</c></rc>
    <rc><c>Mg</c><c>   2</c></rc>
    <rc><c>Mg</c><c>   2</c></rc>
    <rc><c>Bi</c><c>   3</c></rc>
    <rc><c>Bi</c><c>   3</c></rc>
    <rc><c>Bi</c><c>   3</c></rc>
    <rc><c>Bi</c><c>   3</c></rc>
    <rc><c>Bi</c><c>   3</c></rc>
    <rc><c>Bi</c><c>   3</c></rc>
    <rc><c>Bi</c><c>   3</c></rc>
    <rc><c>Bi</c><c>   3</c></rc>
    <rc><c>Bi</c><c>   3</c></rc>
    <rc><c>Bi</c><c>   3</c></rc>
    <rc><c>Bi</c><c>   3</c></rc>
    <rc><c>Bi</c><c>   3</c></rc>
    <rc><c>Bi</c><c>   3</c></rc>
    <rc><c>Bi</c><c>   3</c></rc>
    <rc><c>Bi</c><c>   3</c></rc>
    <rc><c>Bi</c><c>   3</c></rc>
    <rc><c>S </c><c>   4</c></rc>
    <rc><c>S </c><c>   4</c></rc>
    <rc><c>S </c><c>   4</c></rc>
    <rc><c>S </c><c>   4</c></rc>
    <rc><c>S </c><c>   4</c></rc>
    <rc><c>S </c><c>   4</c></rc>
    <rc><c>S </c><c>   4</c></rc>
    <rc><c>S </c><c>   4</c></rc>
    <rc><c>S </c><c>   4</c></rc>
    <rc><c>S </c><c>   4</c></rc>
    <rc><c>S </c><c>   4</c></rc>
    <rc><c>S </c><c>   4</c></rc>
    <rc><c>S </c><c>   4</c></rc>
    <rc><c>S </c><c>   4</c></rc>
    <rc><c>S </c><c>   4</c></rc>
    <rc><c>S </c><c>   4</c></rc>
    <rc><c>O </c><c>   5</c></rc>
    <rc><c>O </c><c>   5</c></rc>
    <rc><c>O </c><c>   5</c></rc>
    <rc><c>O </c><c>   5</c></rc>
    <rc><c>O </c><c>   5</c></rc>
    <rc><c>O </c><c>   5</c></rc>
    <rc><c>O </c><c>   5</c></rc>
    <rc><c>O </c><c>   5</c></rc>
    <rc><c>O </c><c>   5</c></rc>
    <rc><c>O </c><c>   5</c></rc>
    <rc><c>O </c><c>   5</c></rc>
    <rc><c>O </c><c>   5</c></rc>
    <rc><c>O </c><c>   5</c></rc>
    <rc><c>O </c><c>   5</c></rc>
    <rc><c>O </c><c>   5</c></rc>
    <rc><c>O </c><c>   5</c></rc>
   </set>
  </array>
  <array name="atomtypes" >
   <dimension dim="1">type</dimension>
   <field type="int">atomspertype</field>
   <field type="string">element</field>
   <field>mass</field>
   <field>valence</field>
   <field type="string">pseudopotential</field>
   <set>
    <rc><c>   2</c><c>Li</c><c>      7.01000000</c><c>      3.00000000</c><c>  PAW_PBE Li_sv 10Sep2004               </c></rc>
    <rc><c>   7</c><c>Mg</c><c>     24.30500000</c><c>      2.00000000</c><c>  PAW_PBE Mg 13Apr2007                  </c></rc>
    <rc><c>  16</c><c>Bi</c><c>    208.98000000</c><c>     15.00000000</c><c>  PAW_PBE Bi_d 06Sep2000                </c></rc>
    <rc><c>  16</c><c>S </c><c>     32.06600000</c><c>      6.00000000</c><c>  PAW_PBE S 06Sep2000                   </c></rc>
    <rc><c>  16</c><c>O </c><c>     16.00000000</c><c>      6.00000000</c><c>  PAW_PBE O 08Apr2002                   </c></rc>
   </set>
  </array>
 </atominfo>
 <structure name="initialpos" >
  <crystal>
   <varray name="basis" >
    <v>      11.17850000       0.00000000       0.00000000 </v>
    <v>       0.00000000       9.57460000       0.00000000 </v>
    <v>       0.00000000       0.00000000      11.18240000 </v>
   </varray>
   <i name="volume">   1196.84853820 </i>
   <varray name="rec_basis" >
    <v>       0.08945744       0.00000000       0.00000000 </v>
    <v>       0.00000000       0.10444301       0.00000000 </v>
    <v>       0.00000000       0.00000000       0.08942624 </v>
   </varray>
  </crystal>
  <varray name="positions" >
   <v>       0.12539000       0.99984000       0.93687000 </v>
   <v>       0.87461000       0.00017000       0.68687000 </v>
   <v>       0.62461000       0.99984000       0.18687000 </v>
   <v>       0.87461000       0.00017000       0.18687000 </v>
   <v>       0.12461000       0.99984000       0.68687000 </v>
   <v>       0.37461000       0.00017000       0.68687000 </v>
   <v>       0.62539000       0.99984000       0.93687000 </v>
   <v>       0.87539000       0.00017000       0.93687000 </v>
   <v>       0.62461000       0.99984000       0.68687000 </v>
   <v>       0.00013000       0.29519000       0.06281000 </v>
   <v>       0.25013000       0.70481000       0.06281000 </v>
   <v>       0.24987000       0.29519000       0.31282000 </v>
   <v>       0.49987000       0.70481000       0.31282000 </v>
   <v>       0.50013000       0.29519000       0.06281000 </v>
   <v>       0.75013000       0.70481000       0.06281000 </v>
   <v>       0.74987000       0.29519000       0.31282000 </v>
   <v>       0.99987000       0.70481000       0.31282000 </v>
   <v>       0.00013000       0.29519000       0.56281000 </v>
   <v>       0.25013000       0.70481000       0.56281000 </v>
   <v>       0.24987000       0.29519000       0.81282000 </v>
   <v>       0.49987000       0.70481000       0.81282000 </v>
   <v>       0.50013000       0.29519000       0.56281000 </v>
   <v>       0.75013000       0.70481000       0.56281000 </v>
   <v>       0.74987000       0.29519000       0.81282000 </v>
   <v>       0.99987000       0.70481000       0.81282000 </v>
   <v>       0.25005000       0.32677000       0.06286000 </v>
   <v>       0.00005000       0.67323000       0.06286000 </v>
   <v>       0.49995000       0.32677000       0.31286000 </v>
   <v>       0.24995000       0.67323000       0.31286000 </v>
   <v>       0.75005000       0.32677000       0.06286000 </v>
   <v>       0.50005000       0.67323000       0.06286000 </v>
   <v>       0.99995000       0.32677000       0.31286000 </v>
   <v>       0.74995000       0.67323000       0.31286000 </v>
   <v>       0.25005000       0.32677000       0.56286000 </v>
   <v>       0.00005000       0.67323000       0.56286000 </v>
   <v>       0.49995000       0.32677000       0.81286000 </v>
   <v>       0.24995000       0.67323000       0.81286000 </v>
   <v>       0.75005000       0.32677000       0.56286000 </v>
   <v>       0.50005000       0.67323000       0.56286000 </v>
   <v>       0.99995000       0.32677000       0.81286000 </v>
   <v>       0.74995000       0.67323000       0.81286000 </v>
   <v>       0.49987000       0.07798000       0.06246000 </v>
   <v>       0.24987000       0.92202000       0.06246000 </v>
   <v>       0.25013000       0.07798000       0.31246000 </v>
   <v>       0.00013000       0.92202000       0.31246000 </v>
   <v>       0.99987000       0.07798000       0.06246000 </v>
   <v>       0.74987000       0.92202000       0.06246000 </v>
   <v>       0.75013000       0.07798000       0.31246000 </v>
   <v>       0.50013000       0.92202000       0.31246000 </v>
   <v>       0.49987000       0.07798000       0.56246000 </v>
   <v>       0.24987000       0.92202000       0.56246000 </v>
   <v>       0.25013000       0.07798000       0.81246000 </v>
   <v>       0.00013000       0.92202000       0.81246000 </v>
   <v>       0.99987000       0.07798000       0.56246000 </v>
   <v>       0.74987000       0.92202000       0.56246000 </v>
   <v>       0.75013000       0.07798000       0.81246000 </v>
   <v>       0.50013000       0.92202000       0.81246000 </v>
  </varray>
 </structure>
 <calculation>
  <scstep>
   <time name="dav">   61.09   61.98</time>
   <time name="total">   61.23   62.19</time>
   <energy>
    <i name="alphaZ">   1047.62774490 </i>
    <i name="ewald"> -29895.79453649 </i>
    <i name="hartreedc"> -12747.17246493 </i>
    <i name="XCdc">   1099.88043535 </i>
    <i name="pawpsdc">  36446.83583027 </i>
    <i name="pawaedc"> -35618.96860492 </i>
    <i name="eentropy">      0.00000000 </i>
    <i name="bandstr">   1951.58215031 </i>
    <i name="atom">  43261.00331033 </i>
    <i name="e_fr_energy">   5544.99386483 </i>
    <i name="e_wo_entrp">   5544.99386483 </i>
    <i name="e_0_energy">   5544.99386483 </i>
   </energy>
  </scstep>
  <scstep>
   <time name="dav">   61.58   61.94</time>
   <time name="total">   61.59   61.95</time>
   <energy>
    <i name="e_fr_energy">    728.37537369 </i>
    <i name="e_wo_entrp">    728.37537369 </i>
    <i name="e_0_energy">    728.37537369 </i>
   </energy>
  </scstep>
  <scstep>
   <time name="dav">   69.05   69.57</time>
   <time name="total">   69.06   69.57</time>
   <energy>
    <i name="e_fr_energy">   -237.29054514 </i>
    <i name="e_wo_entrp">   -237.29054514 </i>
    <i name="e_0_energy">   -237.29054514 </i>
   </energy>
  </scstep>
  <scstep>
   <time name="dav">   73.91   74.43</time>
   <time name="total">   73.91   74.43</time>
   <energy>
    <i name="e_fr_energy">   -321.68882774 </i>
    <i name="e_wo_entrp">   -321.68882774 </i>
    <i name="e_0_energy">   -321.68882774 </i>
   </energy>
  </scstep>
  <scstep>
   <time name="dav">   87.35   87.87</time>
   <time name="total">   88.07   88.59</time>
   <energy>
    <i name="e_fr_energy">   -326.44674605 </i>
    <i name="e_wo_entrp">   -326.44674605 </i>
    <i name="e_0_energy">   -326.44674605 </i>
   </energy>
  </scstep>
  <scstep>
   <time name="dav">   89.06   89.63</time>
   <time name="total">   89.85   90.44</time>
   <energy>
    <i name="e_fr_energy">   -276.10040540 </i>
    <i name="e_wo_entrp">   -276.10040540 </i>
    <i name="e_0_energy">   -276.10040540 </i>
   </energy>
  </scstep>
  <scstep>
   <time name="dav">   71.78   72.31</time>
   <time name="total">   72.57   73.10</time>
   <energy>
    <i name="e_fr_energy">   -281.39145216 </i>
    <i name="e_wo_entrp">   -281.39145216 </i>
    <i name="e_0_energy">   -281.39145216 </i>
   </energy>
  </scstep>
  <scstep>
   <time name="dav">   83.79   84.37</time>
   <time name="total">   84.57   85.16</time>
   <energy>
    <i name="e_fr_energy">   -275.72030653 </i>
    <i name="e_wo_entrp">   -275.72030653 </i>
    <i name="e_0_energy">   -275.72030653 </i>
   </energy>
  </scstep>
  <scstep>
   <time name="dav">   79.92   80.37</time>
   <time name="total">   80.71   81.19</time>
   <energy>
    <i name="e_fr_energy">   -279.52042847 </i>
    <i name="e_wo_entrp">   -279.52042847 </i>
    <i name="e_0_energy">   -279.52042847 </i>
   </energy>
  </scstep>
  <scstep>
   <time name="dav">   73.30   73.72</time>
   <time name="total">   74.09   74.52</time>
   <energy>
    <i name="e_fr_energy">   -273.70451626 </i>
    <i name="e_wo_entrp">   -273.70451626 </i>
    <i name="e_0_energy">   -273.70451626 </i>
   </energy>
  </scstep>
  <scstep>
   <time name="dav">   70.18   70.60</time>
   <time name="total">   70.95   71.38</time>
   <energy>
    <i name="e_fr_energy">   -274.05306623 </i>
    <i name="e_wo_entrp">   -274.05306623 </i>
    <i name="e_0_energy">   -274.05306623 </i>
   </energy>
  </scstep>
  <scstep>
   <time name="dav">   72.17   72.63</time>
   <time name="total">   72.95   73.42</time>
   <energy>
    <i name="e_fr_energy">   -273.81194631 </i>
    <i name="e_wo_entrp">   -273.81194631 </i>
    <i name="e_0_energy">   -273.81194631 </i>
   </energy>
  </scstep>
  <scstep>
   <time name="dav">   74.46   74.79</time>
   <time name="total">   75.24   75.58</time>
   <energy>
    <i name="e_fr_energy">   -273.65659260 </i>
    <i name="e_wo_entrp">   -273.65659260 </i>
    <i name="e_0_energy">   -273.65659260 </i>
   </energy>
  </scstep>
  <scstep>
   <time name="dav">   88.63   89.02</time>
   <time name="total">   89.42   89.81</time>
   <energy>
    <i name="e_fr_energy">   -273.41066381 </i>
    <i name="e_wo_entrp">   -273.41066381 </i>
    <i name="e_0_energy">   -273.41066381 </i>
   </energy>
  </scstep>
  <scstep>
   <time name="dav">   71.48   71.68</time>
   <time name="total">   72.16   72.52</time>
   <energy>
    <i name="e_fr_energy">   -273.39989856 </i>
    <i name="e_wo_entrp">   -273.39989856 </i>
    <i name="e_0_energy">   -273.39989856 </i>
   </energy>
  </scstep>
  <scstep>
   <time name="dav">   79.22   79.72</time>
   <time name="total">   80.00   80.54</time>
   <energy>
    <i name="e_fr_energy">   -273.35216948 </i>
    <i name="e_wo_entrp">   -273.35216948 </i>
    <i name="e_0_energy">   -273.35216948 </i>
   </energy>
  </scstep>
  <scstep>
   <time name="dav">   76.77   77.14</time>
   <time name="total">   77.57   77.93</time>
   <energy>
    <i name="e_fr_energy">   -273.25232975 </i>
    <i name="e_wo_entrp">   -273.25232975 </i>
    <i name="e_0_energy">   -273.25232975 </i>
   </energy>
  </scstep>
  <scstep>
   <time name="dav">   70.70   71.09</time>
   <time name="total">   71.48   71.88</time>
   <energy>
    <i name="e_fr_energy">   -273.25151560 </i>
    <i name="e_wo_entrp">   -273.25151560 </i>
    <i name="e_0_energy">   -273.25151560 </i>
   </energy>
  </scstep>
  <scstep>
   <time name="dav">   85.51   86.12</time>
   <time name="total">   86.29   86.91</time>
   <energy>
    <i name="e_fr_energy">   -273.25100270 </i>
    <i name="e_wo_entrp">   -273.25100270 </i>
    <i name="e_0_energy">   -273.25100270 </i>
   </energy>
  </scstep>
  <scstep>
   <time name="dav">   76.87   77.78</time>
   <time name="total">   77.66   78.58</time>
   <energy>
    <i name="e_fr_energy">   -273.24997271 </i>
    <i name="e_wo_entrp">   -273.24997271 </i>
    <i name="e_0_energy">   -273.24997271 </i>
   </energy>
  </scstep>
  <scstep>
   <time name="dav">   83.55   83.95</time>
   <time name="total">   84.34   84.75</time>
   <energy>
    <i name="e_fr_energy">   -273.24744786 </i>
    <i name="e_wo_entrp">   -273.24744786 </i>
    <i name="e_0_energy">   -273.24744786 </i>
   </energy>
  </scstep>
  <scstep>
   <time name="dav">   79.97   80.66</time>
   <time name="total">   80.76   81.47</time>
   <energy>
    <i name="e_fr_energy">   -273.24477681 </i>
    <i name="e_wo_entrp">   -273.24477681 </i>
    <i name="e_0_energy">   -273.24477681 </i>
   </energy>
  </scstep>
  <scstep>
   <time name="dav">   67.71   68.02</time>
   <time name="total">   68.50   68.81</time>
   <energy>
    <i name="e_fr_energy">   -273.24483289 </i>
    <i name="e_wo_entrp">   -273.24483289 </i>
    <i name="e_0_energy">   -273.24483289 </i>
   </energy>
  </scstep>
  <scstep>
   <time name="dav">   68.03   68.29</time>
   <time name="total">   68.81   69.09</time>
   <energy>
    <i name="e_fr_energy">   -273.24467598 </i>
    <i name="e_wo_entrp">   -273.24467598 </i>
    <i name="e_0_energy">   -273.24467598 </i>
   </energy>
  </scstep>
  <scstep>
   <time name="dav">   76.93   77.57</time>
   <time name="total">   77.72   78.37</time>
   <energy>
    <i name="e_fr_energy">   -273.24445499 </i>
    <i name="e_wo_entrp">   -273.24445499 </i>
    <i name="e_0_energy">   -273.24445499 </i>
   </energy>
  </scstep>
  <scstep>
   <time name="dav">   86.35   87.04</time>
   <time name="total">   87.14   87.83</time>
   <energy>
    <i name="e_fr_energy">   -273.24442906 </i>
    <i name="e_wo_entrp">   -273.24442906 </i>
    <i name="e_0_energy">   -273.24442906 </i>
   </energy>
  </scstep>
  <scstep>
   <time name="dav">   68.13   68.48</time>
   <time name="total">   69.01   69.37</time>
   <energy>
    <i name="e_fr_energy">   -273.24442824 </i>
    <i name="e_wo_entrp">   -273.24442824 </i>
    <i name="e_0_energy">   -273.24442824 </i>
   </energy>
  </scstep>
  <scstep>
   <time name="dav">   64.65   65.16</time>
   <time name="total">   65.37   65.98</time>
   <energy>
    <i name="e_fr_energy">   -273.24442926 </i>
    <i name="e_wo_entrp">   -273.24442926 </i>
    <i name="e_0_energy">   -273.24442926 </i>
   </energy>
  </scstep>
  <scstep>
   <time name="dav">   70.97   71.60</time>
   <time name="total">   71.76   72.40</time>
   <energy>
    <i name="e_fr_energy">   -273.24444372 </i>
    <i name="e_wo_entrp">   -273.24444372 </i>
    <i name="e_0_energy">   -273.24444372 </i>
   </energy>
  </scstep>
  <scstep>
   <time name="dav">   63.28   63.74</time>
   <time name="total">   64.08   64.54</time>
   <energy>
    <i name="e_fr_energy">   -273.24441921 </i>
    <i name="e_wo_entrp">   -273.24441921 </i>
    <i name="e_0_energy">   -273.24441921 </i>
   </energy>
  </scstep>
  <scstep>
   <time name="dav">   62.15   62.37</time>
   <time name="total">   62.92   63.17</time>
   <energy>
    <i name="e_fr_energy">   -273.24441751 </i>
    <i name="e_wo_entrp">   -273.24441751 </i>
    <i name="e_0_energy">   -273.24441751 </i>
   </energy>
  </scstep>
  <scstep>
   <time name="dav">   47.60   47.98</time>
   <time name="total">   47.67   48.06</time>
   <energy>
    <i name="alphaZ">   1047.62774490 </i>
    <i name="ewald"> -29895.79453649 </i>
    <i name="hartreedc"> -12960.14386975 </i>
    <i name="XCdc">   1124.30936752 </i>
    <i name="pawpsdc">  43476.20413003 </i>
    <i name="pawaedc"> -42621.43397688 </i>
    <i name="eentropy">      0.00000000 </i>
    <i name="bandstr">  -3705.01658746 </i>
    <i name="atom">  43261.00331033 </i>
    <i name="e_fr_energy">   -273.24441779 </i>
    <i name="e_wo_entrp">   -273.24441779 </i>
    <i name="e_0_energy">   -273.24441779 </i>
   </energy>
  </scstep>
  <structure>
   <crystal>
    <varray name="basis" >
     <v>      11.17850000       0.00000000       0.00000000 </v>
     <v>       0.00000000       9.57460000       0.00000000 </v>
     <v>       0.00000000       0.00000000      11.18240000 </v>
    </varray>
    <i name="volume">   1196.84853820 </i>
    <varray name="rec_basis" >
     <v>       0.08945744       0.00000000       0.00000000 </v>
     <v>       0.00000000       0.10444301       0.00000000 </v>
     <v>       0.00000000       0.00000000       0.08942624 </v>
    </varray>
   </crystal>
   <varray name="positions" >
    <v>       0.12539000       0.99984000       0.93687000 </v>
    <v>       0.87461000       0.00017000       0.68687000 </v>
    <v>       0.62461000       0.99984000       0.18687000 </v>
    <v>       0.87461000       0.00017000       0.18687000 </v>
    <v>       0.12461000       0.99984000       0.68687000 </v>
    <v>       0.37461000       0.00017000       0.68687000 </v>
    <v>       0.62539000       0.99984000       0.93687000 </v>
    <v>       0.87539000       0.00017000       0.93687000 </v>
    <v>       0.62461000       0.99984000       0.68687000 </v>
    <v>       0.00013000       0.29519000       0.06281000 </v>
    <v>       0.25013000       0.70481000       0.06281000 </v>
    <v>       0.24987000       0.29519000       0.31282000 </v>
    <v>       0.49987000       0.70481000       0.31282000 </v>
    <v>       0.50013000       0.29519000       0.06281000 </v>
    <v>       0.75013000       0.70481000       0.06281000 </v>
    <v>       0.74987000       0.29519000       0.31282000 </v>
    <v>       0.99987000       0.70481000       0.31282000 </v>
    <v>       0.00013000       0.29519000       0.56281000 </v>
    <v>       0.25013000       0.70481000       0.56281000 </v>
    <v>       0.24987000       0.29519000       0.81282000 </v>
    <v>       0.49987000       0.70481000       0.81282000 </v>
    <v>       0.50013000       0.29519000       0.56281000 </v>
    <v>       0.75013000       0.70481000       0.56281000 </v>
    <v>       0.74987000       0.29519000       0.81282000 </v>
    <v>       0.99987000       0.70481000       0.81282000 </v>
    <v>       0.25005000       0.32677000       0.06286000 </v>
    <v>       0.00005000       0.67323000       0.06286000 </v>
    <v>       0.49995000       0.32677000       0.31286000 </v>
    <v>       0.24995000       0.67323000       0.31286000 </v>
    <v>       0.75005000       0.32677000       0.06286000 </v>
    <v>       0.50005000       0.67323000       0.06286000 </v>
    <v>       0.99995000       0.32677000       0.31286000 </v>
    <v>       0.74995000       0.67323000       0.31286000 </v>
    <v>       0.25005000       0.32677000       0.56286000 </v>
    <v>       0.00005000       0.67323000       0.56286000 </v>
    <v>       0.49995000       0.32677000       0.81286000 </v>
    <v>       0.24995000       0.67323000       0.81286000 </v>
    <v>       0.75005000       0.32677000       0.56286000 </v>
    <v>       0.50005000       0.67323000       0.56286000 </v>
    <v>       0.99995000       0.32677000       0.81286000 </v>
    <v>       0.74995000       0.67323000       0.81286000 </v>
    <v>       0.49987000       0.07798000       0.06246000 </v>
    <v>       0.24987000       0.92202000       0.06246000 </v>
    <v>       0.25013000       0.07798000       0.31246000 </v>
    <v>       0.00013000       0.92202000       0.31246000 </v>
    <v>       0.99987000       0.07798000       0.06246000 </v>
    <v>       0.74987000       0.92202000       0.06246000 </v>
    <v>       0.75013000       0.07798000       0.31246000 </v>
    <v>       0.50013000       0.92202000       0.31246000 </v>
    <v>       0.49987000       0.07798000       0.56246000 </v>
    <v>       0.24987000       0.92202000       0.56246000 </v>
    <v>       0.25013000       0.07798000       0.81246000 </v>
    <v>       0.00013000       0.92202000       0.81246000 </v>
    <v>       0.99987000       0.07798000       0.56246000 </v>
    <v>       0.74987000       0.92202000       0.56246000 </v>
    <v>       0.75013000       0.07798000       0.81246000 </v>
    <v>       0.50013000       0.92202000       0.81246000 </v>
   </varray>
  </structure>
  <varray name="forces" >
   <v>       1.21217073      -0.15058933       1.15744887 </v>
   <v>       0.18362984      -0.07027048      -1.55481870 </v>
   <v>      -2.44577454       0.23531710       2.69731269 </v>
   <v>       2.25930001       0.11355356       2.94164873 </v>
   <v>      -0.32728083       0.24933254      -1.60964937 </v>
   <v>      -0.38584642       0.12328081      -0.82861571 </v>
   <v>      -2.42537342       0.28775366       0.42143788 </v>
   <v>       1.57211153       0.17121289      -0.39143093 </v>
   <v>       0.39549937      -0.23846606      -2.64382274 </v>
   <v>       1.03065394       1.31274318       0.84877100 </v>
   <v>       0.11727326       2.51625449       0.79745728 </v>
   <v>      -0.00260284      -2.79667078      -0.05755487 </v>
   <v>      -0.70024773       1.77809837       0.20997692 </v>
   <v>      -1.10425769       0.31740160       0.70303747 </v>
   <v>      -0.04722923      -3.98122443       0.76707148 </v>
   <v>       0.01206408       0.25562211       0.67907000 </v>
   <v>       0.72510224       1.78382620       0.29291475 </v>
   <v>       0.23248366      -0.84725336      -0.88313046 </v>
   <v>      -0.07704493      -0.20039003      -1.15323658 </v>
   <v>       0.09785102       1.22140451       0.32447716 </v>
   <v>      -0.70515474      -2.14650410       0.10652683 </v>
   <v>      -0.31711087       0.20293501      -1.03615422 </v>
   <v>       0.12531434       0.74054571      -0.87207400 </v>
   <v>       0.11746633       3.18933855      -0.51858714 </v>
   <v>       0.50859894      -2.19706654      -0.23121979 </v>
   <v>      -0.11263064       0.12257263      -0.62343499 </v>
   <v>      -0.79862178       0.02892428      -0.59604382 </v>
   <v>       0.54567511       0.15363625      -0.17097477 </v>
   <v>       0.00447717      -0.27726192       0.29093158 </v>
   <v>       0.07578044      -0.19648871      -0.42595901 </v>
   <v>       0.81952865       0.04087499      -0.58878840 </v>
   <v>      -0.55273228       0.13455353      -0.35816777 </v>
   <v>       0.00203520      -0.11596347      -0.54152054 </v>
   <v>       0.11269664       0.10860612       0.70586230 </v>
   <v>      -0.05746045      -0.10453108       0.68518535 </v>
   <v>       0.38198563      -0.12891007       0.00768759 </v>
   <v>      -0.02857858      -0.05046521      -0.32538393 </v>
   <v>      -0.13463614       0.02860109       0.56942357 </v>
   <v>       0.09248138      -0.06149742       0.71274277 </v>
   <v>      -0.32975092      -0.06008321       0.21550515 </v>
   <v>      -0.03445816       0.28933819       0.36898343 </v>
   <v>       2.69604912      -0.55184378      -0.55214999 </v>
   <v>      -0.64339842      -2.06923107      -0.90755069 </v>
   <v>      -0.00741505       2.41130005       0.03994179 </v>
   <v>      -1.30435581      -1.43293920      -1.26825591 </v>
   <v>      -2.14015651      -1.23711223      -1.12833388 </v>
   <v>       0.12877955       3.03581798      -0.74669178 </v>
   <v>      -0.00305354      -0.35343597      -2.61234995 </v>
   <v>       1.26994035      -1.47717960      -1.14608103 </v>
   <v>       0.10975260      -0.29314375       2.55553031 </v>
   <v>       0.06962485       0.20465116       2.48342670 </v>
   <v>      -0.64752848      -1.02657366      -1.52427663 </v>
   <v>      -0.46997881       1.78261313       0.28991180 </v>
   <v>       0.31747029       0.55738351       2.12120228 </v>
   <v>      -0.48990219      -0.38847363       2.19074560 </v>
   <v>      -0.39428683      -2.72366265       0.95391280 </v>
   <v>       1.47107158       1.77973852      -0.84188648 </v>
  </varray>
  <varray name="stress" >
   <v>      10.48055749       0.45223235      -0.37838793 </v>
   <v>       0.45223234      -8.49890803       0.11626740 </v>
   <v>      -0.37838802       0.11626736      -0.67991747 </v>
  </varray>
  <energy>
   <i name="e_fr_energy">   -284.06170715 </i>
   <i name="e_wo_entrp">   -284.06170715 </i>
   <i name="e_0_energy">      0.00000000 </i>
  </energy>
  <time name="totalsc"> 2499.62 2516.17</time>
 </calculation>
 <calculation>
  <scstep>
   <time name="dav">   70.34   70.75</time>
   <time name="total">   71.12   71.53</time>
   <energy>
    <i name="alphaZ">   1046.80418240 </i>
    <i name="ewald"> -29882.44348594 </i>
    <i name="hartreedc"> -12937.37213595 </i>
    <i name="XCdc">   1124.29756775 </i>
    <i name="pawpsdc">  43476.23606922 </i>
    <i name="pawaedc"> -42621.46529872 </i>
    <i name="eentropy">      0.00000000 </i>
    <i name="bandstr">  -3738.81082074 </i>
    <i name="atom">  43261.00331033 </i>
    <i name="e_fr_energy">   -271.75061164 </i>
    <i name="e_wo_entrp">   -271.75061164 </i>
    <i name="e_0_energy">   -271.75061164 </i>
   </energy>
  </scstep>
  <scstep>
   <time name="dav">   69.34   69.73</time>
   <time name="total">   70.12   70.52</time>
   <energy>
    <i name="e_fr_energy">   -279.11758315 </i>
    <i name="e_wo_entrp">   -279.11758315 </i>
    <i name="e_0_energy">   -279.11758315 </i>
   </energy>
  </scstep>
  <scstep>
   <time name="dav">   82.65   83.30</time>
   <time name="total">   83.43   84.09</time>
   <energy>
    <i name="e_fr_energy">   -278.76055331 </i>
    <i name="e_wo_entrp">   -278.76055331 </i>
    <i name="e_0_energy">   -278.76055331 </i>
   </energy>
  </scstep>
  <scstep>
   <time name="dav">   81.26   82.07</time>
   <time name="total">   82.03   82.85</time>
   <energy>
    <i name="e_fr_energy">   -278.59877730 </i>
    <i name="e_wo_entrp">   -278.59877730 </i>
    <i name="e_0_energy">   -278.59877730 </i>
   </energy>
  </scstep>
  <scstep>
   <time name="dav">   81.38   82.31</time>
   <time name="total">   82.16   83.10</time>
   <energy>
    <i name="e_fr_energy">   -278.48507622 </i>
    <i name="e_wo_entrp">   -278.48507622 </i>
    <i name="e_0_energy">   -278.48507622 </i>
   </energy>
  </scstep>
  <scstep>
   <time name="dav">   73.10   74.50</time>
   <time name="total">   73.88   75.29</time>
   <energy>
    <i name="e_fr_energy">   -278.44666284 </i>
    <i name="e_wo_entrp">   -278.44666284 </i>
    <i name="e_0_energy">   -278.44666284 </i>
   </energy>
  </scstep>
  <scstep>
   <time name="dav">   68.81   69.46</time>
   <time name="total">   69.60   70.25</time>
   <energy>
    <i name="e_fr_energy">   -278.44984351 </i>
    <i name="e_wo_entrp">   -278.44984351 </i>
    <i name="e_0_energy">   -278.44984351 </i>
   </energy>
  </scstep>
  <scstep>
   <time name="dav">   81.32   81.83</time>
   <time name="total">   82.10   82.62</time>
   <energy>
    <i name="e_fr_energy">   -278.44868875 </i>
    <i name="e_wo_entrp">   -278.44868875 </i>
    <i name="e_0_energy">   -278.44868875 </i>
   </energy>
  </scstep>
  <scstep>
   <time name="dav">   76.56   76.99</time>
   <time name="total">   77.34   77.78</time>
   <energy>
    <i name="e_fr_energy">   -278.44811805 </i>
    <i name="e_wo_entrp">   -278.44811805 </i>
    <i name="e_0_energy">   -278.44811805 </i>
   </energy>
  </scstep>
  <scstep>
   <time name="dav">   75.73   76.20</time>
   <time name="total">   76.51   76.99</time>
   <energy>
    <i name="e_fr_energy">   -278.44819329 </i>
    <i name="e_wo_entrp">   -278.44819329 </i>
    <i name="e_0_energy">   -278.44819329 </i>
   </energy>
  </scstep>
  <scstep>
   <time name="dav">   69.94   70.34</time>
   <time name="total">   70.72   71.13</time>
   <energy>
    <i name="e_fr_energy">   -278.44821064 </i>
    <i name="e_wo_entrp">   -278.44821064 </i>
    <i name="e_0_energy">   -278.44821064 </i>
   </energy>
  </scstep>
  <scstep>
   <time name="dav">   66.93   67.31</time>
   <time name="total">   67.71   68.10</time>
   <energy>
    <i name="e_fr_energy">   -278.44822126 </i>
    <i name="e_wo_entrp">   -278.44822126 </i>
    <i name="e_0_energy">   -278.44822126 </i>
   </energy>
  </scstep>
  <scstep>
   <time name="dav">   73.93   74.35</time>
   <time name="total">   74.71   75.14</time>
   <energy>
    <i name="e_fr_energy">   -278.44822626 </i>
    <i name="e_wo_entrp">   -278.44822626 </i>
    <i name="e_0_energy">   -278.44822626 </i>
   </energy>
  </scstep>
  <scstep>
   <time name="dav">   62.02   62.24</time>
   <time name="total">   62.09   62.32</time>
   <energy>
    <i name="alphaZ">   1046.80418240 </i>
    <i name="ewald"> -29882.44348594 </i>
    <i name="hartreedc"> -12970.11647409 </i>
    <i name="XCdc">   1126.56976876 </i>
    <i name="pawpsdc">  43615.19586276 </i>
    <i name="pawaedc"> -42761.98931468 </i>
    <i name="eentropy">      0.00000000 </i>
    <i name="bandstr">  -3713.47207670 </i>
    <i name="atom">  43261.00331033 </i>
    <i name="e_fr_energy">   -278.44822715 </i>
    <i name="e_wo_entrp">   -278.44822715 </i>
    <i name="e_0_energy">   -278.44822715 </i>
   </energy>
  </scstep>
  <structure>
   <crystal>
    <varray name="basis" >
     <v>      11.25257179       0.00319617      -0.00267427 </v>
     <v>       0.00273758       9.52315197       0.00070382 </v>
     <v>      -0.00267521       0.00082201      11.17759298 </v>
    </varray>
    <i name="volume">   1197.79014656 </i>
    <varray name="rec_basis" >
     <v>       0.08886859      -0.00002555       0.00002127 </v>
     <v>      -0.00002983       0.10500726      -0.00000773 </v>
     <v>       0.00002126      -0.00000662       0.08946471 </v>
    </varray>
   </crystal>
   <varray name="positions" >
    <v>       0.13062132       0.99908124       0.94186342 </v>
    <v>       0.87540248      -0.00018407       0.68016226 </v>
    <v>       0.61405486       0.00102567       0.19850664 </v>
    <v>       0.88436038       0.00074215       0.19956074 </v>
    <v>       0.12319757       0.00109629       0.67992572 </v>
    <v>       0.37294482       0.00079116       0.68329522 </v>
    <v>       0.61492290       0.00128988       0.93868815 </v>
    <v>       0.88217471       0.00103267       0.93518130 </v>
    <v>       0.62631684       0.99863846       0.67546413 </v>
    <v>       0.00457796       0.30180440       0.06647173 </v>
    <v>       0.25063611       0.71748842       0.06625036 </v>
    <v>       0.24985877       0.28109867       0.31257170 </v>
    <v>       0.49684797       0.71376914       0.31372587 </v>
    <v>       0.49536439       0.29678926       0.06584302 </v>
    <v>       0.74992617       0.68475017       0.06611927 </v>
    <v>       0.74992206       0.29647798       0.31574962 </v>
    <v>       0.00299930       0.71379800       0.31408368 </v>
    <v>       0.00113332       0.29092102       0.55900003 </v>
    <v>       0.24979750       0.70380031       0.55783475 </v>
    <v>       0.25029229       0.30134418       0.81421985 </v>
    <v>       0.49682679       0.69399461       0.81327957 </v>
    <v>       0.49876146       0.29621251       0.55833987 </v>
    <v>       0.75067081       0.70854132       0.55904773 </v>
    <v>       0.75037695       0.31125983       0.81058273 </v>
    <v>       0.00206494       0.69373984       0.81182248 </v>
    <v>       0.24956392       0.32738760       0.06017040 </v>
    <v>      -0.00339658       0.67337574       0.06028857 </v>
    <v>       0.50230495       0.32754411       0.31212239 </v>
    <v>       0.24996932       0.67183299       0.31411513 </v>
    <v>       0.75037704       0.32577997       0.06102235 </v>
    <v>       0.50358681       0.67343595       0.06031987 </v>
    <v>       0.99756459       0.32744796       0.31131481 </v>
    <v>       0.74995878       0.67264571       0.31052379 </v>
    <v>       0.25053636       0.32731722       0.56590520 </v>
    <v>      -0.00019798       0.67270331       0.56581600 </v>
    <v>       0.50159852       0.32612047       0.81289317 </v>
    <v>       0.24982666       0.67297573       0.81145624 </v>
    <v>       0.74946896       0.32691411       0.56531658 </v>
    <v>       0.50044912       0.67292014       0.56593489 </v>
    <v>       0.99852691       0.32646726       0.81378972 </v>
    <v>       0.74980129       0.67468786       0.81445185 </v>
    <v>       0.51150524       0.07519948       0.06007794 </v>
    <v>       0.24709331       0.91159396       0.05854468 </v>
    <v>       0.25009800       0.09012960       0.31263232 </v>
    <v>      -0.00549916       0.91479998       0.30698854 </v>
    <v>       0.99063380       0.07174668       0.05759219 </v>
    <v>       0.75042577       0.93731630       0.05923865 </v>
    <v>       0.75011682       0.07619917       0.30118991 </v>
    <v>       0.50561064       0.91457707       0.30751562 </v>
    <v>       0.50034366       0.07650296       0.57348496 </v>
    <v>       0.25017048       0.92305116       0.57317390 </v>
    <v>       0.24733548       0.07280750       0.80588403 </v>
    <v>      -0.00189827       0.93100189       0.81371073 </v>
    <v>       0.00124010       0.08078844       0.57161120 </v>
    <v>       0.74775575       0.92006263       0.57191123 </v>
    <v>       0.74842839       0.06425653       0.81657533 </v>
    <v>       0.50647865       0.93098740       0.80882797 </v>
   </varray>
  </structure>
  <varray name="forces" >
   <v>       0.75793033      -0.06615734       0.62958265 </v>
   <v>       0.02090526      -0.06163989      -0.67302463 </v>
   <v>      -0.20944236       0.42928976       0.43013239 </v>
   <v>       0.26818309       0.39778212       0.28135931 </v>
   <v>      -0.23937402       0.00039079      -0.19606065 </v>
   <v>       0.07516190       0.05947658       0.17175385 </v>
   <v>      -0.06656417      -0.14077220      -0.24531272 </v>
   <v>      -0.43903831      -0.06093727      -0.21912894 </v>
   <v>       0.30134113      -0.04654676      -0.23010104 </v>
   <v>       0.25659816      -0.35511112       0.32856030 </v>
   <v>       0.15251815      -3.10611797       0.48880931 </v>
   <v>      -0.01462767       3.63193548       0.02151999 </v>
   <v>      -0.50953166      -1.86295389       0.21858765 </v>
   <v>      -0.37264985      -0.37085880       0.24825751 </v>
   <v>       0.01183577      -0.05123868       0.19810768 </v>
   <v>       0.01480072      -0.17471697       0.07968331 </v>
   <v>       0.52733401      -1.79181747       0.19848735 </v>
   <v>       0.18521382       0.47585534      -0.44245530 </v>
   <v>      -0.01011522       0.01083528      -0.54357008 </v>
   <v>       0.03450182      -0.26905032       0.04578284 </v>
   <v>      -0.20317639       0.21570135       0.07170913 </v>
   <v>      -0.27966109      -0.11472786      -0.44467812 </v>
   <v>       0.07024109      -0.30791082      -0.36497421 </v>
   <v>       0.03222151      -0.09626199       0.03132964 </v>
   <v>       0.14455989       0.11471139       0.00110268 </v>
   <v>      -0.07399138       0.05492242      -0.43567822 </v>
   <v>      -0.39334713      -0.19442488      -0.26742575 </v>
   <v>       0.46916201       0.04669759      -0.13591285 </v>
   <v>      -0.00179209      -0.08031663       0.27579126 </v>
   <v>       0.02207450       0.40702135      -0.19118126 </v>
   <v>       0.42884433      -0.08737512      -0.27055028 </v>
   <v>      -0.47708998       0.03084886      -0.22906601 </v>
   <v>       0.00261102      -0.16046605      -0.21561452 </v>
   <v>       0.08245508       0.16055332       0.49439018 </v>
   <v>      -0.01015183      -0.04294919       0.34664777 </v>
   <v>       0.18243702       0.16560825       0.01056630 </v>
   <v>      -0.01579910      -0.23082874      -0.17067374 </v>
   <v>      -0.09143494       0.00066946       0.31301283 </v>
   <v>       0.05398556      -0.08145281       0.35386403 </v>
   <v>      -0.15581456       0.21541782       0.06319634 </v>
   <v>      -0.00469136      -0.27570537       0.04930703 </v>
   <v>       0.92015151       0.79976591       0.49582190 </v>
   <v>      -0.59966315       3.52310283      -0.79177768 </v>
   <v>       0.00185521      -4.20210658       0.04504422 </v>
   <v>      -0.41708162       1.55080468      -0.33122644 </v>
   <v>      -0.60599762       0.85748762      -0.04658595 </v>
   <v>      -0.01125832      -0.79297028       0.10149782 </v>
   <v>      -0.06523173       0.45628738      -1.20852227 </v>
   <v>       0.43155376       1.60692678      -0.30106327 </v>
   <v>      -0.16343927       0.51433018       1.07098367 </v>
   <v>      -0.03780751      -0.39860346       1.17722598 </v>
   <v>      -0.48484107       0.60536842      -0.99746475 </v>
   <v>       0.24618675      -0.67557908      -0.33613519 </v>
   <v>      -0.01310581      -0.39901284       1.09892964 </v>
   <v>       0.13842278       0.14089441       0.88655579 </v>
   <v>      -0.32455248       0.77949745       0.06598710 </v>
   <v>       0.45818550      -0.75357244      -1.00540355 </v>
  </varray>
  <varray name="stress" >
   <v>       6.09742423      -2.20642310      -0.36485639 </v>
   <v>      -2.20642293       9.37826189      -0.90934676 </v>
   <v>      -0.36485654      -0.90934687      11.75090734 </v>
  </varray>
  <energy>
   <i name="e_fr_energy">   -289.29442652 </i>
   <i name="e_wo_entrp">   -289.29442652 </i>
   <i name="e_0_energy">      0.00000000 </i>
  </energy>
  <time name="totalsc"> 1152.60 1161.69</time>
 </calculation>
 <calculation>
  <scstep>
   <time name="dav">   64.88   65.15</time>
   <time name="total">   65.66   65.94</time>
   <energy>
    <i name="alphaZ">   1046.86706047 </i>
    <i name="ewald"> -29888.87457077 </i>
    <i name="hartreedc"> -12967.46027414 </i>
    <i name="XCdc">   1126.50579957 </i>
    <i name="pawpsdc">  43614.94471409 </i>
    <i name="pawaedc"> -42761.73669367 </i>
    <i name="eentropy">      0.00000000 </i>
    <i name="bandstr">  -3709.70284891 </i>
    <i name="atom">  43261.00331033 </i>
    <i name="e_fr_energy">   -278.45350304 </i>
    <i name="e_wo_entrp">   -278.45350304 </i>
    <i name="e_0_energy">   -278.45350304 </i>
   </energy>
  </scstep>
  <scstep>
   <time name="dav">   71.28   71.56</time>
   <time name="total">   72.06   72.35</time>
   <energy>
    <i name="e_fr_energy">   -278.49962791 </i>
    <i name="e_wo_entrp">   -278.49962791 </i>
    <i name="e_0_energy">   -278.49962791 </i>
   </energy>
  </scstep>
  <scstep>
   <time name="dav">   79.07   80.15</time>
   <time name="total">   79.86   80.93</time>
   <energy>
    <i name="e_fr_energy">   -278.49785669 </i>
    <i name="e_wo_entrp">   -278.49785669 </i>
    <i name="e_0_energy">   -278.49785669 </i>
   </energy>
  </scstep>
  <scstep>
   <time name="dav">   79.76   80.04</time>
   <time name="total">   80.55   80.82</time>
   <energy>
    <i name="e_fr_energy">   -278.49644157 </i>
    <i name="e_wo_entrp">   -278.49644157 </i>
    <i name="e_0_energy">   -278.49644157 </i>
   </energy>
  </scstep>
  <scstep>
   <time name="dav">   78.67   78.68</time>
   <time name="total">   79.46   79.48</time>
   <energy>
    <i name="e_fr_energy">   -278.49535302 </i>
    <i name="e_wo_entrp">   -278.49535302 </i>
    <i name="e_0_energy">   -278.49535302 </i>
   </energy>
  </scstep>
  <scstep>
   <time name="dav">   80.89   81.24</time>
   <time name="total">   81.67   82.03</time>
   <energy>
    <i name="e_fr_energy">   -278.49532740 </i>
    <i name="e_wo_entrp">   -278.49532740 </i>
    <i name="e_0_energy">   -278.49532740 </i>
   </energy>
  </scstep>
  <scstep>
   <time name="dav">   67.89   68.14</time>
   <time name="total">   68.68   68.92</time>
   <energy>
    <i name="e_fr_energy">   -278.49532640 </i>
    <i name="e_wo_entrp">   -278.49532640 </i>
    <i name="e_0_energy">   -278.49532640 </i>
   </energy>
  </scstep>
  <scstep>
   <time name="dav">   67.26   67.28</time>
   <time name="total">   68.04   68.06</time>
   <energy>
    <i name="e_fr_energy">   -278.49531796 </i>
    <i name="e_wo_entrp">   -278.49531796 </i>
    <i name="e_0_energy">   -278.49531796 </i>
   </energy>
  </scstep>
  <scstep>
   <time name="dav">   77.67   77.68</time>
   <time name="total">   78.47   78.49</time>
   <energy>
    <i name="e_fr_energy">   -278.49531667 </i>
    <i name="e_wo_entrp">   -278.49531667 </i>
    <i name="e_0_energy">   -278.49531667 </i>
   </energy>
  </scstep>
  <scstep>
   <time name="dav">   62.84   62.83</time>
   <time name="total">   63.63   63.62</time>
   <energy>
    <i name="e_fr_energy">   -278.49531802 </i>
    <i name="e_wo_entrp">   -278.49531802 </i>
    <i name="e_0_energy">   -278.49531802 </i>
   </energy>
  </scstep>
  <scstep>
   <time name="dav">   45.05   45.05</time>
   <time name="total">   45.12   45.13</time>
   <energy>
    <i name="alphaZ">   1046.86706047 </i>
    <i name="ewald"> -29888.87457077 </i>
    <i name="hartreedc"> -12965.05387036 </i>
    <i name="XCdc">   1126.34369650 </i>
    <i name="pawpsdc">  43584.07266448 </i>
    <i name="pawaedc"> -42730.42440100 </i>
    <i name="eentropy">      0.00000000 </i>
    <i name="bandstr">  -3712.42920791 </i>
    <i name="atom">  43261.00331033 </i>
    <i name="e_fr_energy">   -278.49531826 </i>
    <i name="e_wo_entrp">   -278.49531826 </i>
    <i name="e_0_energy">   -278.49531826 </i>
   </energy>
  </scstep>
  <structure>
   <crystal>
    <varray name="basis" >
     <v>      11.24666174       0.00294116      -0.00246090 </v>
     <v>       0.00251916       9.52725692       0.00064767 </v>
     <v>      -0.00246176       0.00075642      11.17797652 </v>
    </varray>
    <i name="volume">   1197.71820359 </i>
    <varray name="rec_basis" >
     <v>       0.08891528      -0.00002351       0.00001958 </v>
     <v>      -0.00002745       0.10496201      -0.00000711 </v>
     <v>       0.00001958      -0.00000609       0.08946163 </v>
    </varray>
   </crystal>
   <varray name="positions" >
    <v>       0.13020656       0.99914228       0.94146473 </v>
    <v>       0.87533979      -0.00015569       0.68069768 </v>
    <v>       0.61489129       0.00093036       0.19757798 </v>
    <v>       0.88358731       0.00069660       0.19854755 </v>
    <v>       0.12330968       0.00099542       0.68048006 </v>
    <v>       0.37307688       0.00074127       0.68358060 </v>
    <v>       0.61575255       0.00117330       0.93854323 </v>
    <v>       0.88163698       0.00096364       0.93531598 </v>
    <v>       0.62618175       0.99873482       0.67637453 </v>
    <v>       0.00422546       0.30127394       0.06617939 </v>
    <v>       0.25059618       0.71647140       0.06597579 </v>
    <v>       0.24985939       0.28222907       0.31259145 </v>
    <v>       0.49708766       0.71305037       0.31365367 </v>
    <v>       0.49574210       0.29666086       0.06560101 </v>
    <v>       0.74994188       0.68635937       0.06585502 </v>
    <v>       0.74991791       0.29637468       0.31551577 </v>
    <v>       0.00275141       0.71307708       0.31398280 </v>
    <v>       0.00105378       0.29126348       0.55930411 </v>
    <v>       0.24982393       0.70388127       0.55823189 </v>
    <v>       0.25025891       0.30085052       0.81410813 </v>
    <v>       0.49706778       0.69486213       0.81324289 </v>
    <v>       0.49887004       0.29613042       0.55869671 </v>
    <v>       0.75062809       0.70824198       0.55934806 </v>
    <v>       0.75033712       0.30997072       0.81076139 </v>
    <v>       0.00189077       0.69462793       0.81190201 </v>
    <v>       0.24960251       0.32733802       0.06038510 </v>
    <v>      -0.00312335       0.67336394       0.06049390 </v>
    <v>       0.50211832       0.32748207       0.31218122 </v>
    <v>       0.24996774       0.67194506       0.31401493 </v>
    <v>       0.75035114       0.32585939       0.06116902 </v>
    <v>       0.50330652       0.67341951       0.06052257 </v>
    <v>       0.99775371       0.32739350       0.31143820 </v>
    <v>       0.74995812       0.67269256       0.31071027 </v>
    <v>       0.25049776       0.32727336       0.56566212 </v>
    <v>      -0.00017839       0.67274557       0.56558005 </v>
    <v>       0.50146784       0.32617262       0.81289048 </v>
    <v>       0.24983646       0.67299611       0.81156829 </v>
    <v>       0.74951497       0.32690255       0.56512051 </v>
    <v>       0.50041742       0.67294503       0.56568943 </v>
    <v>       0.99863968       0.32649152       0.81371554 </v>
    <v>       0.74981308       0.67457092       0.81432480 </v>
    <v>       0.51058299       0.07542282       0.06026784 </v>
    <v>       0.24731327       0.91243022       0.05885721 </v>
    <v>       0.25010077       0.08915496       0.31261862 </v>
    <v>      -0.00505302       0.91537898       0.30742536 </v>
    <v>       0.99136586       0.07224643       0.05798089 </v>
    <v>       0.75038208       0.93608923       0.05949586 </v>
    <v>       0.75011805       0.07634195       0.30208950 </v>
    <v>       0.50517617       0.91517425       0.30791015 </v>
    <v>       0.50030587       0.07662154       0.57260491 </v>
    <v>       0.25014648       0.92296852       0.57231869 </v>
    <v>       0.24755701       0.07322231       0.80640897 </v>
    <v>      -0.00173735       0.93028132       0.81361097 </v>
    <v>       0.00113138       0.08056325       0.57088072 </v>
    <v>       0.74792311       0.92021966       0.57115684 </v>
    <v>       0.74856292       0.06535740       0.81624680 </v>
    <v>       0.50597568       0.93026819       0.80911781 </v>
   </varray>
  </structure>
  <varray name="forces" >
   <v>       0.79724718      -0.07740418       0.67456492 </v>
   <v>       0.03380543      -0.06158369      -0.74535842 </v>
   <v>      -0.39861933       0.37168240       0.63169811 </v>
   <v>       0.44369933       0.33084983       0.51788176 </v>
   <v>      -0.25283272       0.02362965      -0.32207622 </v>
   <v>       0.03398957       0.06040102       0.08127480 </v>
   <v>      -0.28091115      -0.08777749      -0.15623108 </v>
   <v>      -0.26076984      -0.03724025      -0.21133247 </v>
   <v>       0.32160344      -0.06909846      -0.44485156 </v>
   <v>       0.32378147      -0.25596221       0.38114135 </v>
   <v>       0.13448180      -2.38057167       0.48696925 </v>
   <v>      -0.01303640       2.69717719       0.01714313 </v>
   <v>      -0.50985165      -1.45381241       0.20494668 </v>
   <v>      -0.43535595      -0.32099661       0.29389008 </v>
   <v>       0.00715150      -0.21216650       0.24807348 </v>
   <v>       0.01441529      -0.13867064       0.12682510 </v>
   <v>       0.52864831      -1.39209151       0.19149678 </v>
   <v>       0.19352330       0.35352301      -0.47743055 </v>
   <v>      -0.01571287      -0.00669513      -0.59945517 </v>
   <v>       0.03995117      -0.17328581       0.07168777 </v>
   <v>      -0.24398985       0.08976464       0.07306846 </v>
   <v>      -0.28729231      -0.08982622      -0.50009390 </v>
   <v>       0.07348658      -0.21453237      -0.40077966 </v>
   <v>       0.03835383       0.04729000      -0.01389234 </v>
   <v>       0.17484395      -0.00700802      -0.02052994 </v>
   <v>      -0.07773013       0.06170278      -0.46129277 </v>
   <v>      -0.42869653      -0.17921875      -0.29589879 </v>
   <v>       0.48283841       0.05792952      -0.13956877 </v>
   <v>      -0.00100074      -0.09849542       0.28142522 </v>
   <v>       0.02531257       0.36640674      -0.21381361 </v>
   <v>       0.46269807      -0.07931832      -0.29851328 </v>
   <v>      -0.49073161       0.04187902      -0.24242640 </v>
   <v>       0.00258130      -0.15856419      -0.24722196 </v>
   <v>       0.08482567       0.15870955       0.52203196 </v>
   <v>      -0.01441532      -0.04914054       0.37855611 </v>
   <v>       0.20249578       0.14453169       0.00878067 </v>
   <v>      -0.01655041      -0.21801659      -0.18394508 </v>
   <v>      -0.09463597       0.00368381       0.34228537 </v>
   <v>       0.05788859      -0.08092572       0.38700888 </v>
   <v>      -0.17278761       0.19538412       0.07398099 </v>
   <v>      -0.00749429      -0.23605240       0.07370445 </v>
   <v>       1.09736966       0.67407442       0.36593990 </v>
   <v>      -0.58994893       2.80670200      -0.77520123 </v>
   <v>       0.00079087      -3.25855958       0.04530630 </v>
   <v>      -0.51118565       1.23570972      -0.42763363 </v>
   <v>      -0.75589094       0.71154452      -0.16661594 </v>
   <v>      -0.00072292      -0.61945091       0.04680268 </v>
   <v>      -0.05867130       0.38966029      -1.32563603 </v>
   <v>       0.51611767       1.27675483      -0.38785948 </v>
   <v>      -0.12778045       0.43574312       1.20893214 </v>
   <v>      -0.02665950      -0.33811394       1.29974698 </v>
   <v>      -0.49889503       0.49773568      -1.04535609 </v>
   <v>       0.17875343      -0.53478734      -0.27538217 </v>
   <v>       0.02267973      -0.31799980       1.18716761 </v>
   <v>       0.06425536       0.10849767       1.00645223 </v>
   <v>      -0.33400399       0.61360003       0.13819274 </v>
   <v>       0.54858412      -0.60720059      -0.98857939 </v>
  </varray>
  <varray name="stress" >
   <v>       5.95862060      -1.87426944      -0.36382520 </v>
   <v>      -1.87426949       4.91277175      -0.66307545 </v>
   <v>      -0.36382527      -0.66307561      10.35127681 </v>
  </varray>
  <energy>
   <i name="e_fr_energy">   -289.33851550 </i>
   <i name="e_wo_entrp">   -289.33851550 </i>
   <i name="e_0_energy">      0.00000000 </i>
  </energy>
  <time name="totalsc">  893.05  895.71</time>
 </calculation>
 <calculation>
  <scstep>
   <time name="dav">   70.54   70.62</time>
   <time name="total">   71.32   71.40</time>
   <energy>
    <i name="alphaZ">   1032.92644088 </i>
    <i name="ewald"> -29858.40904354 </i>
    <i name="hartreedc"> -12809.88639881 </i>
    <i name="XCdc">   1118.24416958 </i>
    <i name="pawpsdc">  43584.29077244 </i>
    <i name="pawaedc"> -42730.64454254 </i>
    <i name="eentropy">      0.00000000 </i>
    <i name="bandstr">  -3874.80102439 </i>
    <i name="atom">  43261.00331033 </i>
    <i name="e_fr_energy">   -277.27631604 </i>
    <i name="e_wo_entrp">   -277.27631604 </i>
    <i name="e_0_energy">   -277.27631604 </i>
   </energy>
  </scstep>
  <scstep>
   <time name="dav">   69.53   69.57</time>
   <time name="total">   70.31   70.36</time>
   <energy>
    <i name="e_fr_energy">   -279.84328037 </i>
    <i name="e_wo_entrp">   -279.84328037 </i>
    <i name="e_0_energy">   -279.84328037 </i>
   </energy>
  </scstep>
  <scstep>
   <time name="dav">   79.00   79.04</time>
   <time name="total">   79.78   79.83</time>
   <energy>
    <i name="e_fr_energy">   -279.63840066 </i>
    <i name="e_wo_entrp">   -279.63840066 </i>
    <i name="e_0_energy">   -279.63840066 </i>
   </energy>
  </scstep>
  <scstep>
   <time name="dav">   72.06   72.10</time>
   <time name="total">   72.86   72.90</time>
   <energy>
    <i name="e_fr_energy">   -279.49716376 </i>
    <i name="e_wo_entrp">   -279.49716376 </i>
    <i name="e_0_energy">   -279.49716376 </i>
   </energy>
  </scstep>
  <scstep>
   <time name="dav">   74.18   74.42</time>
   <time name="total">   74.97   75.21</time>
   <energy>
    <i name="e_fr_energy">   -279.43231227 </i>
    <i name="e_wo_entrp">   -279.43231227 </i>
    <i name="e_0_energy">   -279.43231227 </i>
   </energy>
  </scstep>
  <scstep>
   <time name="dav">   72.20   72.57</time>
   <time name="total">   72.98   73.36</time>
   <energy>
    <i name="e_fr_energy">   -279.42064424 </i>
    <i name="e_wo_entrp">   -279.42064424 </i>
    <i name="e_0_energy">   -279.42064424 </i>
   </energy>
  </scstep>
  <scstep>
   <time name="dav">   80.43   80.69</time>
   <time name="total">   81.22   81.48</time>
   <energy>
    <i name="e_fr_energy">   -279.42050529 </i>
    <i name="e_wo_entrp">   -279.42050529 </i>
    <i name="e_0_energy">   -279.42050529 </i>
   </energy>
  </scstep>
  <scstep>
   <time name="dav">   76.68   76.70</time>
   <time name="total">   77.48   77.51</time>
   <energy>
    <i name="e_fr_energy">   -279.42021886 </i>
    <i name="e_wo_entrp">   -279.42021886 </i>
    <i name="e_0_energy">   -279.42021886 </i>
   </energy>
  </scstep>
  <scstep>
   <time name="dav">   76.34   76.49</time>
   <time name="total">   77.12   77.28</time>
   <energy>
    <i name="e_fr_energy">   -279.42003576 </i>
    <i name="e_wo_entrp">   -279.42003576 </i>
    <i name="e_0_energy">   -279.42003576 </i>
   </energy>
  </scstep>
  <scstep>
   <time name="dav">   82.61   82.70</time>
   <time name="total">   83.40   83.49</time>
   <energy>
    <i name="e_fr_energy">   -279.41996260 </i>
    <i name="e_wo_entrp">   -279.41996260 </i>
    <i name="e_0_energy">   -279.41996260 </i>
   </energy>
  </scstep>
  <scstep>
   <time name="dav">   75.43   75.61</time>
   <time name="total">   76.22   76.40</time>
   <energy>
    <i name="e_fr_energy">   -279.41997667 </i>
    <i name="e_wo_entrp">   -279.41997667 </i>
    <i name="e_0_energy">   -279.41997667 </i>
   </energy>
  </scstep>
  <scstep>
   <time name="dav">   72.36   73.32</time>
   <time name="total">   73.15   74.11</time>
   <energy>
    <i name="e_fr_energy">   -279.41998294 </i>
    <i name="e_wo_entrp">   -279.41998294 </i>
    <i name="e_0_energy">   -279.41998294 </i>
   </energy>
  </scstep>
  <scstep>
   <time name="dav">   64.21   64.90</time>
   <time name="total">   65.00   65.69</time>
   <energy>
    <i name="e_fr_energy">   -279.41998743 </i>
    <i name="e_wo_entrp">   -279.41998743 </i>
    <i name="e_0_energy">   -279.41998743 </i>
   </energy>
  </scstep>
  <scstep>
   <time name="dav">   56.93   57.21</time>
   <time name="total">   57.71   58.00</time>
   <energy>
    <i name="e_fr_energy">   -279.41998868 </i>
    <i name="e_wo_entrp">   -279.41998868 </i>
    <i name="e_0_energy">   -279.41998868 </i>
   </energy>
  </scstep>
  <scstep>
   <time name="dav">   44.60   44.61</time>
   <time name="total">   44.67   44.69</time>
   <energy>
    <i name="alphaZ">   1032.92644088 </i>
    <i name="ewald"> -29858.40904354 </i>
    <i name="hartreedc"> -12932.33718036 </i>
    <i name="XCdc">   1123.86026799 </i>
    <i name="pawpsdc">  43136.17213618 </i>
    <i name="pawaedc"> -42276.14593043 </i>
    <i name="eentropy">      0.00000000 </i>
    <i name="bandstr">  -3766.48999005 </i>
    <i name="atom">  43261.00331033 </i>
    <i name="e_fr_energy">   -279.41998900 </i>
    <i name="e_wo_entrp">   -279.41998900 </i>
    <i name="e_0_energy">   -279.41998900 </i>
   </energy>
  </scstep>
  <structure>
   <crystal>
    <varray name="basis" >
     <v>      11.30925921      -0.00927662      -0.00577892 </v>
     <v>      -0.00782161       9.54205439      -0.00308598 </v>
     <v>      -0.00575743      -0.00362421      11.24867050 </v>
    </varray>
    <i name="volume">   1213.88289179 </i>
[...]
       <r>    8.7212    0.0000 </r>
       <r>    8.7720    0.0000 </r>
       <r>    8.8208    0.0000 </r>
       <r>    9.0424    0.0000 </r>
       <r>    9.2059    0.0000 </r>
       <r>    9.5583    0.0000 </r>
       <r>   10.0670    0.0000 </r>
       <r>   10.0939    0.0000 </r>
       <r>   10.1827    0.0000 </r>
       <r>   10.3002    0.0000 </r>
       <r>   10.3628    0.0000 </r>
       <r>   10.4301    0.0000 </r>
      </set>
     </set>
    </set>
   </array>
  </eigenvalues>
  <separator name="orbital magnetization" >
   <v name="MAGDIPOLOUT">      0.00000000      0.00000000      0.00000000</v>
  </separator>
  <dos>
   <i name="efermi">      4.09452252 </i>
   <total>
    <array>
     <dimension dim="1">gridpoints</dimension>
     <dimension dim="2">spin</dimension>
     <field>energy</field>
     <field>total</field>
     <field>integrated</field>
     <set>
      <set comment="spin 1">
       <r>   -42.7533     0.0000     0.0000 </r>
       <r>   -42.5676     0.0000     0.0000 </r>
       <r>   -42.3819     0.0000     0.0000 </r>
       <r>   -42.1961     0.0000     0.0000 </r>
       <r>   -42.0104     0.0000     0.0000 </r>
       <r>   -41.8247     0.0000     0.0000 </r>
       <r>   -41.6390     0.0000     0.0000 </r>
       <r>   -41.4533     0.0000     0.0000 </r>
       <r>   -41.2675     0.0000     0.0000 </r>
       <r>   -41.0818     0.0000     0.0000 </r>
       <r>   -40.8961     0.0000     0.0000 </r>
       <r>   -40.7104     0.0000     0.0000 </r>
       <r>   -40.5247     0.0000     0.0000 </r>
       <r>   -40.3389     0.0000     0.0000 </r>
       <r>   -40.1532     0.0000     2.0000 </r>
       <r>   -39.9675     0.0000     4.0000 </r>
       <r>   -39.7818     0.0000     4.0000 </r>
       <r>   -39.5961     0.0000     4.0000 </r>
       <r>   -39.4103     0.0000     4.0000 </r>
       <r>   -39.2246     0.0000     4.0000 </r>
       <r>   -39.0389     0.0000     4.0000 </r>
       <r>   -38.8532     0.0000     4.0000 </r>
       <r>   -38.6675     0.0000     4.0000 </r>
       <r>   -38.4817     0.0000     4.0000 </r>
       <r>   -38.2960     0.0000     4.0000 </r>
       <r>   -38.1103     0.0000     4.0000 </r>
       <r>   -37.9246     0.0000     4.0000 </r>
       <r>   -37.7389     0.0000     4.0000 </r>
       <r>   -37.5531     0.0000     4.0000 </r>
       <r>   -37.3674     0.0000     4.0000 </r>
       <r>   -37.1817     0.0000     4.0000 </r>
       <r>   -36.9960     0.0000     4.0000 </r>
       <r>   -36.8103     0.0000     4.0000 </r>
       <r>   -36.6245     0.0000     4.0000 </r>
       <r>   -36.4388     0.0000     4.0000 </r>
       <r>   -36.2531     0.0000     4.0000 </r>
       <r>   -36.0674     0.0000     4.0000 </r>
       <r>   -35.8817     0.0000     4.0000 </r>
       <r>   -35.6959     0.0000     4.0000 </r>
       <r>   -35.5102     0.0000     4.0000 </r>
       <r>   -35.3245     0.0000     4.0000 </r>
       <r>   -35.1388     0.0000     4.0000 </r>
       <r>   -34.9531     0.0000     4.0000 </r>
       <r>   -34.7673     0.0000     4.0000 </r>
       <r>   -34.5816     0.0000     4.0000 </r>
       <r>   -34.3959     0.0000     4.0000 </r>
       <r>   -34.2102     0.0000     4.0000 </r>
       <r>   -34.0245     0.0000     4.0000 </r>
       <r>   -33.8388     0.0000     4.0000 </r>
       <r>   -33.6530     0.0000     4.0000 </r>
       <r>   -33.4673     0.0000     4.0000 </r>
       <r>   -33.2816     0.0000     4.0000 </r>
       <r>   -33.0959     0.0000     4.0000 </r>
       <r>   -32.9102     0.0000     4.0000 </r>
       <r>   -32.7244     0.0000     4.0000 </r>
       <r>   -32.5387     0.0000     4.0000 </r>
       <r>   -32.3530     0.0000     4.0000 </r>
       <r>   -32.1673     0.0000     4.0000 </r>
       <r>   -31.9816     0.0000     4.0000 </r>
       <r>   -31.7958     0.0000     4.0000 </r>
       <r>   -31.6101     0.0000     4.0000 </r>
       <r>   -31.4244     0.0000     4.0000 </r>
       <r>   -31.2387     0.0000     4.0000 </r>
       <r>   -31.0530     0.0000     4.0000 </r>
       <r>   -30.8672     0.0000     4.0000 </r>
       <r>   -30.6815     0.0000     4.0000 </r>
       <r>   -30.4958     0.0000     4.0000 </r>
       <r>   -30.3101     0.0000     4.0000 </r>
       <r>   -30.1244     0.0000     4.0000 </r>
       <r>   -29.9386     0.0000     4.0000 </r>
       <r>   -29.7529     0.0000     4.0000 </r>
       <r>   -29.5672     0.0000     4.0000 </r>
       <r>   -29.3815     0.0000     4.0000 </r>
       <r>   -29.1958     0.0000     4.0000 </r>
       <r>   -29.0100     0.0000     4.0000 </r>
       <r>   -28.8243     0.0000     4.0000 </r>
       <r>   -28.6386     0.0000     4.0000 </r>
       <r>   -28.4529     0.0000     4.0000 </r>
       <r>   -28.2672     0.0000     4.0000 </r>
       <r>   -28.0814     0.0000     4.0000 </r>
       <r>   -27.8957     0.0000     4.0000 </r>
       <r>   -27.7100     0.0000     4.0000 </r>
       <r>   -27.5243     0.0000     4.0000 </r>
       <r>   -27.3386     0.0000     4.0000 </r>
       <r>   -27.1528     0.0000     4.0000 </r>
       <r>   -26.9671     0.0000     4.0000 </r>
       <r>   -26.7814     0.0000     4.0000 </r>
       <r>   -26.5957     0.0000     4.0000 </r>
       <r>   -26.4100     0.0000     4.0000 </r>
       <r>   -26.2242     0.0000     4.0000 </r>
       <r>   -26.0385     0.0000     4.0000 </r>
       <r>   -25.8528     0.0000     4.0000 </r>
       <r>   -25.6671     0.0000     4.0000 </r>
       <r>   -25.4814     0.0000     4.0000 </r>
       <r>   -25.2956     0.0000     4.0000 </r>
       <r>   -25.1099     0.0000     4.0000 </r>
       <r>   -24.9242     0.0000     4.0000 </r>
       <r>   -24.7385     0.0000     4.0000 </r>
       <r>   -24.5528     0.0000     4.0000 </r>
       <r>   -24.3670     0.0000     4.0000 </r>
       <r>   -24.1813     0.0000     4.0000 </r>
       <r>   -23.9956     0.0000     4.0000 </r>
       <r>   -23.8099     0.0000     4.0000 </r>
       <r>   -23.6242     0.0000     4.0000 </r>
       <r>   -23.4384     0.0000     4.0000 </r>
       <r>   -23.2527     0.0000     4.0000 </r>
       <r>   -23.0670     0.0000     4.0000 </r>
       <r>   -22.8813     0.0000     4.0000 </r>
       <r>   -22.6956     0.0000     4.0000 </r>
       <r>   -22.5098     0.0000     4.0000 </r>
       <r>   -22.3241     0.0000     4.0000 </r>
       <r>   -22.1384     0.0000     4.0000 </r>
       <r>   -21.9527     0.0000     4.0000 </r>
       <r>   -21.7670     0.0000     4.0000 </r>
       <r>   -21.5812     0.0000     4.0000 </r>
       <r>   -21.3955     0.0000     4.0000 </r>
       <r>   -21.2098     0.0000     4.0000 </r>
       <r>   -21.0241     0.0000     4.0000 </r>
       <r>   -20.8384     0.0000     4.0000 </r>
       <r>   -20.6526     0.0000     4.0000 </r>
       <r>   -20.4669     0.0000     4.0000 </r>
       <r>   -20.2812     0.0000     4.0000 </r>
       <r>   -20.0955     0.0000     4.0000 </r>
       <r>   -19.9098     0.0000     4.0000 </r>
       <r>   -19.7240     0.0000     4.0000 </r>
       <r>   -19.5383     0.0000     4.0000 </r>
       <r>   -19.3526     0.0000     4.0000 </r>
       <r>   -19.1669     0.0000     4.0000 </r>
       <r>   -18.9812     0.0000     4.0000 </r>
       <r>   -18.7954  6377.7229    37.5612 </r>
       <r>   -18.6097     0.0000   112.0000 </r>
       <r>   -18.4240     0.0000   158.0000 </r>
       <r>   -18.2383     0.0000   164.0000 </r>
       <r>   -18.0526     0.0000   164.0000 </r>
       <r>   -17.8668     0.0000   164.0000 </r>
       <r>   -17.6811     0.0000   164.0000 </r>
       <r>   -17.4954     0.0000   164.0000 </r>
       <r>   -17.3097     0.0000   164.0000 </r>
       <r>   -17.1240     0.0000   164.0000 </r>
       <r>   -16.9382     0.0000   164.0000 </r>
       <r>   -16.7525     0.0000   164.0000 </r>
       <r>   -16.5668     0.0000   164.0000 </r>
       <r>   -16.3811     0.0000   164.0000 </r>
       <r>   -16.1954     0.0000   164.0000 </r>
       <r>   -16.0096     0.0000   164.0000 </r>
       <r>   -15.8239     0.0000   164.0000 </r>
       <r>   -15.6382     0.0000   164.0000 </r>
       <r>   -15.4525     0.0000   164.0000 </r>
       <r>   -15.2668     0.0000   164.0000 </r>
       <r>   -15.0810     0.0000   164.0000 </r>
       <r>   -14.8953     0.0000   164.0000 </r>
       <r>   -14.7096     0.0000   164.0000 </r>
       <r>   -14.5239     0.0000   164.0000 </r>
       <r>   -14.3382     0.0000   164.0000 </r>
       <r>   -14.1524     0.0000   166.0000 </r>
       <r>   -13.9667     0.0000   166.0000 </r>
       <r>   -13.7810     0.0000   166.0000 </r>
       <r>   -13.5953     0.0000   166.0000 </r>
       <r>   -13.4096     0.0000   168.0000 </r>
       <r>   -13.2239   293.7619   173.2768 </r>
       <r>   -13.0381     0.0000   180.0000 </r>
       <r>   -12.8524     0.0000   190.0000 </r>
       <r>   -12.6667     0.0000   194.0000 </r>
       <r>   -12.4810     0.0000   196.0000 </r>
       <r>   -12.2953     0.0000   196.0000 </r>
       <r>   -12.1095     0.0000   196.0000 </r>
       <r>   -11.9238     0.0000   196.0000 </r>
       <r>   -11.7381     0.0000   196.0000 </r>
       <r>   -11.5524     0.0000   196.0000 </r>
       <r>   -11.3667     0.0000   196.0000 </r>
       <r>   -11.1809     0.0000   196.0000 </r>
       <r>   -10.9952     0.0000   196.0000 </r>
       <r>   -10.8095     0.0000   196.0000 </r>
       <r>   -10.6238     0.0000   196.0000 </r>
       <r>   -10.4381     0.0000   196.0000 </r>
       <r>   -10.2523     0.0000   196.0000 </r>
       <r>   -10.0666     0.0000   196.0000 </r>
       <r>    -9.8809     0.0000   196.0000 </r>
       <r>    -9.6952     0.0000   196.0000 </r>
       <r>    -9.5095     0.0000   196.0000 </r>
       <r>    -9.3237    13.0331   196.6015 </r>
       <r>    -9.1380     0.0000   198.0000 </r>
       <r>    -8.9523     8.8582   199.6089 </r>
       <r>    -8.7666     8.9344   200.3807 </r>
       <r>    -8.5809     0.0000   204.0000 </r>
       <r>    -8.3951    30.1573   207.6229 </r>
       <r>    -8.2094    16.3707   210.2040 </r>
       <r>    -8.0237    21.8588   213.3502 </r>
       <r>    -7.8380    28.5467   218.5449 </r>
       <r>    -7.6523    14.1414   222.9891 </r>
       <r>    -7.4665    31.2481   226.0689 </r>
       <r>    -7.2808     0.0000   228.0000 </r>
       <r>    -7.0951     0.0000   228.0000 </r>
       <r>    -6.9094     0.0000   228.0000 </r>
       <r>    -6.7237     0.0000   228.0000 </r>
       <r>    -6.5379     1.8427   228.0244 </r>
       <r>    -6.3522    28.5196   229.8292 </r>
       <r>    -6.1665    20.6180   233.1817 </r>
       <r>    -5.9808    13.8066   237.1274 </r>
       <r>    -5.7951    18.2884   240.7981 </r>
       <r>    -5.6093    17.2841   244.7084 </r>
       <r>    -5.4236    12.9749   247.9611 </r>
       <r>    -5.2379    15.3465   250.5469 </r>
       <r>    -5.0522     3.5605   252.1223 </r>
       <r>    -4.8665    13.6116   253.6994 </r>
       <r>    -4.6807     8.1022   255.6710 </r>
       <r>    -4.4950     6.4081   256.6940 </r>
       <r>    -4.3093    11.0469   258.4503 </r>
       <r>    -4.1236     3.0761   259.5574 </r>
       <r>    -3.9379     1.0813   259.9435 </r>
       <r>    -3.7521     0.0000   260.0000 </r>
       <r>    -3.5664     0.0000   260.0000 </r>
       <r>    -3.3807     0.0000   260.0000 </r>
       <r>    -3.1950     0.0000   260.0000 </r>
       <r>    -3.0093     0.0000   260.0000 </r>
       <r>    -2.8235     0.0000   260.0000 </r>
       <r>    -2.6378     0.0000   260.0000 </r>
       <r>    -2.4521     0.0000   260.0000 </r>
       <r>    -2.2664     0.0000   260.0000 </r>
       <r>    -2.0807     0.0000   260.0000 </r>
       <r>    -1.8949     0.0000   260.0000 </r>
       <r>    -1.7092     0.0000   260.0000 </r>
       <r>    -1.5235     0.0000   260.0000 </r>
       <r>    -1.3378     0.0000   260.0000 </r>
       <r>    -1.1521    10.5610   260.7912 </r>
       <r>    -0.9663    10.0714   262.6363 </r>
       <r>    -0.7806    17.4774   264.9302 </r>
       <r>    -0.5949    17.0556   268.5645 </r>
       <r>    -0.4092    39.1691   273.0431 </r>
       <r>    -0.2235    29.0639   279.8253 </r>
       <r>    -0.0377    35.9374   286.6706 </r>
       <r>     0.1480    34.9610   293.9831 </r>
       <r>     0.3337    26.8469   300.4567 </r>
       <r>     0.5194    44.0771   307.5964 </r>
       <r>     0.7051    38.2940   315.3114 </r>
       <r>     0.8909    40.9613   323.7510 </r>
       <r>     1.0766    63.5012   332.2411 </r>
       <r>     1.2623    41.0644   340.0682 </r>
       <r>     1.4480    45.8536   349.6975 </r>
       <r>     1.6337    41.6423   357.1603 </r>
       <r>     1.8195    46.4993   365.2212 </r>
       <r>     2.0052    42.3788   373.7421 </r>
       <r>     2.1909    45.3025   381.6797 </r>
       <r>     2.3766    52.7377   390.5121 </r>
       <r>     2.5623    60.1738   400.8632 </r>
       <r>     2.7481    62.1141   413.1100 </r>
       <r>     2.9338    33.8587   422.7815 </r>
       <r>     3.1195    45.5400   429.6477 </r>
       <r>     3.3052    45.8294   436.6462 </r>
       <r>     3.4909    32.5976   443.4147 </r>
       <r>     3.6767    25.1727   448.3943 </r>
       <r>     3.8624     7.9680   451.5470 </r>
       <r>     4.0481     0.0000   452.0000 </r>
       <r>     4.2338     0.0000   452.0000 </r>
       <r>     4.4195     0.0000   452.0000 </r>
       <r>     4.6053     0.0000   452.0000 </r>
       <r>     4.7910     0.0000   452.0000 </r>
       <r>     4.9767     0.0000   452.0000 </r>
       <r>     5.1624     0.1141   452.0010 </r>
       <r>     5.3481     3.7068   452.2898 </r>
       <r>     5.5339    13.4525   453.8579 </r>
       <r>     5.7196    13.6473   456.2347 </r>
       <r>     5.9053    17.4955   459.3923 </r>
       <r>     6.0910    14.4147   462.2158 </r>
       <r>     6.2767    14.5944   464.8560 </r>
       <r>     6.4625    17.1200   467.7681 </r>
       <r>     6.6482    19.2574   471.1434 </r>
       <r>     6.8339    20.3138   474.7926 </r>
       <r>     7.0196    26.9259   479.1484 </r>
       <r>     7.2053    27.8966   484.7774 </r>
       <r>     7.3910    28.5933   490.2720 </r>
       <r>     7.5768    32.9921   496.3086 </r>
       <r>     7.7625    30.1145   501.4288 </r>
       <r>     7.9482    28.1346   507.6397 </r>
       <r>     8.1339    32.0915   513.7020 </r>
       <r>     8.3196    25.6464   518.7902 </r>
       <r>     8.5054    27.8065   523.7127 </r>
       <r>     8.6911    29.3948   529.2376 </r>
       <r>     8.8768    26.4591   534.2875 </r>
       <r>     9.0625    22.1632   538.7949 </r>
       <r>     9.2482    16.4053   542.4355 </r>
       <r>     9.4340    14.2380   545.0177 </r>
       <r>     9.6197    12.2140   547.6463 </r>
       <r>     9.8054    17.3364   550.1822 </r>
       <r>     9.9911    17.7590   553.2131 </r>
       <r>    10.1768    18.2608   556.3153 </r>
       <r>    10.3626     9.3744   559.7370 </r>
       <r>    10.5483     0.0000   560.0000 </r>
       <r>    10.7340     0.0000   560.0000 </r>
       <r>    10.9197     0.0000   560.0000 </r>
       <r>    11.1054     0.0000   560.0000 </r>
       <r>    11.2912     0.0000   560.0000 </r>
       <r>    11.4769     0.0000   560.0000 </r>
       <r>    11.6626     0.0000   560.0000 </r>
       <r>    11.8483     0.0000   560.0000 </r>
       <r>    12.0340     0.0000   560.0000 </r>
       <r>    12.2198     0.0000   560.0000 </r>
       <r>    12.4055     0.0000   560.0000 </r>
       <r>    12.5912     0.0000   560.0000 </r>
       <r>    12.7769     0.0000   560.0000 </r>
       <r>    12.9626     0.0000   560.0000 </r>
      </set>
     </set>
    </array>
   </total>
  </dos>
 </calculation>
 <structure name="finalpos" >
  <crystal>
   <varray name="basis" >
    <v>      11.18687240      -0.14785162      -0.04033276 </v>
    <v>      -0.12090162       9.54108050       0.10537463 </v>
    <v>      -0.03252252       0.11859352      11.29248673 </v>
   </varray>
   <i name="volume">   1204.94878932 </i>
   <varray name="rec_basis" >
    <v>       0.08940631       0.00113022       0.00024562 </v>
    <v>       0.00138166       0.10483956      -0.00109704 </v>
    <v>       0.00030643      -0.00097426       0.08856557 </v>
   </varray>
  </crystal>
  <varray name="positions" >
   <v>       0.23010057       0.05372720       0.97769873 </v>
   <v>       0.87946882       0.02280404       0.54079855 </v>
   <v>       0.56245179       0.04270570       0.23877257 </v>
   <v>       0.85970668       0.01578741       0.16571989 </v>
   <v>       0.11939924       0.02257585       0.70515641 </v>
   <v>       0.38115708       0.01533031       0.72277673 </v>
   <v>       0.61760758      -0.00318517       0.94937418 </v>
   <v>       0.88267357       0.01772541       0.90751495 </v>
   <v>       0.64232987       0.01986636       0.68529092 </v>
   <v>       0.00542446       0.33275475       0.06062815 </v>
   <v>       0.25527046       0.72172508       0.07707749 </v>
   <v>       0.16816472       0.03545883       0.27678834 </v>
   <v>       0.49570827       0.68139116       0.30942292 </v>
   <v>       0.49188828       0.31709442       0.06950609 </v>
   <v>       0.75925964       0.68809268       0.06321878 </v>
   <v>       0.74981672       0.30760097       0.30432521 </v>
   <v>       0.02302431       0.71750289       0.31543933 </v>
   <v>       0.01951439       0.32402481       0.54987894 </v>
   <v>       0.24795858       0.73775249       0.54482333 </v>
   <v>       0.25161493       0.33607223       0.81506292 </v>
   <v>       0.50053143       0.68577878       0.81059867 </v>
   <v>       0.49491277       0.31412914       0.55343623 </v>
   <v>       0.74873659       0.70426983       0.56045373 </v>
   <v>       0.75152038       0.32916144       0.80739139 </v>
   <v>       0.00934201       0.70018648       0.81158066 </v>
   <v>       0.24387771       0.28838814       0.06288049 </v>
   <v>       0.01689727       0.66167251       0.05613783 </v>
   <v>       0.49349939       0.27459572       0.31736197 </v>
   <v>       0.26645216       0.58126607       0.27834782 </v>
   <v>       0.74357384       0.37851599       0.06681605 </v>
   <v>       0.51921175       0.70224037       0.05172147 </v>
   <v>       0.99482600       0.30140588       0.30785215 </v>
   <v>       0.76707892       0.69388443       0.30423918 </v>
   <v>       0.25592115       0.36224418       0.57196511 </v>
   <v>       0.00873723       0.67002589       0.56111117 </v>
   <v>       0.50158854       0.36412923       0.82475253 </v>
   <v>       0.26114148       0.66088434       0.81397796 </v>
   <v>       0.75129682       0.30368534       0.57068327 </v>
   <v>       0.51021012       0.66136310       0.55962073 </v>
   <v>       0.99875941       0.35052261       0.81148159 </v>
   <v>       0.76239408       0.65138853       0.80602090 </v>
   <v>       0.53081876       0.10165800       0.06810128 </v>
   <v>       0.22569501       0.93615661       0.11684737 </v>
   <v>       0.17428305      -0.14564993       0.38991785 </v>
   <v>      -0.00703529       0.93519222       0.25940215 </v>
   <v>       0.95293971       0.12072142       0.04205885 </v>
   <v>       0.76951422       0.91806039       0.02900962 </v>
   <v>       0.73463384       0.09306359       0.26473765 </v>
   <v>       0.46948764       0.88929997       0.30399812 </v>
   <v>       0.49888908       0.10888086       0.61876904 </v>
   <v>       0.25262736       0.92381819       0.63274255 </v>
   <v>       0.25046727       0.10676798       0.81192996 </v>
   <v>       0.00314136       0.92194120       0.81317606 </v>
   <v>       0.02075596       0.10967388       0.58183936 </v>
   <v>       0.74872347       0.91683956       0.58571214 </v>
   <v>       0.73331536       0.09744083       0.82927806 </v>
   <v>       0.52252421       0.91946982       0.80676461 </v>
  </varray>
 </structure>
</modeling>
