<?xml version="1.0" encoding="ISO-8859-1"?>
<modeling>
 <generator>
  <i name="program" type="string">vasp </i>
  <i name="version" type="string">5.4.4.18Apr17-6-g9f103f2a35  </i>
  <i name="subversion" type="string">(build Jul 31 2017 11:33:29) complex            parallel </i>
  <i name="platform" type="string">LinuxIFC </i>
  <i name="date" type="string">2021 09 24 </i>
  <i name="time" type="string">00:32:55 </i>
 </generator>
 <incar>
  <i type="string" name="SYSTEM"> La2O2S</i>
  <i type="string" name="PREC">normal</i>
  <i type="int" name="NELMIN">     4</i>
  <i type="int" name="IBRION">     2</i>
  <i type="int" name="NFREE">    10</i>
  <i name="EDIFF">      0.00000100</i>
  <i name="EDIFFG">     -0.01000000</i>
  <i type="int" name="NSW">   200</i>
  <i type="int" name="ISIF">     3</i>
  <i name="ENCUT">    600.00000000</i>
  <i name="ENAUG">    900.00000000</i>
  <i type="int" name="ISMEAR">    -5</i>
  <i type="logical" name="LWAVE"> F  </i>
  <i type="logical" name="LCHARG"> F  </i>
  <v type="int" name="KPOINT_BSE">    -1     0     0     0</v>
 </incar>
 <structure name="primitive_cell" >
  <crystal>
   <varray name="basis" >
    <v>      11.17850000       0.00000000       0.00000000 </v>
    <v>       0.00000000       9.57460000       0.00000000 </v>
    <v>       0.00000000       0.00000000      11.18240000 </v>
   </varray>
   <i name="volume">   1196.84853820 </i>
   <varray name="rec_basis" >
    <v>       0.08945744       0.00000000       0.00000000 </v>
    <v>       0.00000000       0.10444301       0.00000000 </v>
    <v>       0.00000000       0.00000000       0.08942624 </v>
   </varray>
  </crystal>
  <varray name="positions" >
   <v>       0.37539000       0.00017000       0.43687000 </v>
   <v>      -0.49987000      -0.07798000       0.31246000 </v>
   <v>       0.25013000       0.07798000       0.31246000 </v>
   <v>       0.49987000       0.07798000      -0.43754000 </v>
   <v>       0.24987000      -0.07798000      -0.43754000 </v>
   <v>      -0.37461000      -0.00016000       0.43687000 </v>
   <v>       0.37461000       0.00017000       0.18687000 </v>
   <v>       0.37461000       0.00017000      -0.31313000 </v>
   <v>       0.49987000      -0.29519000       0.31282000 </v>
   <v>       0.24987000       0.29519000       0.31282000 </v>
   <v>      -0.49987000       0.29519000      -0.43719000 </v>
   <v>       0.25013000      -0.29519000      -0.43719000 </v>
   <v>       0.49995000       0.32677000       0.31286000 </v>
   <v>       0.24995000      -0.32677000       0.31286000 </v>
   <v>      -0.49995000      -0.32677000      -0.43714000 </v>
   <v>       0.25005000       0.32677000      -0.43714000 </v>
   <v>      -0.37539000      -0.00016000       0.18687000 </v>
   <v>       0.12461000      -0.00016000       0.18687000 </v>
   <v>       0.12461000      -0.00016000      -0.31313000 </v>
   <v>       0.49987000       0.07798000       0.06246000 </v>
   <v>      -0.24987000       0.07798000       0.31246000 </v>
   <v>      -0.25013000      -0.07798000      -0.43754000 </v>
   <v>       0.24987000      -0.07798000       0.06246000 </v>
   <v>       0.00013000      -0.07798000       0.31246000 </v>
   <v>      -0.49987000      -0.07798000      -0.18754000 </v>
   <v>      -0.00013000       0.07798000      -0.43754000 </v>
   <v>       0.25013000       0.07798000      -0.18754000 </v>
   <v>      -0.49987000       0.29519000       0.06281000 </v>
   <v>      -0.25013000       0.29519000       0.31282000 </v>
   <v>       0.25013000      -0.29519000       0.06281000 </v>
   <v>      -0.24987000      -0.29519000      -0.43719000 </v>
   <v>      -0.00013000      -0.29519000       0.31282000 </v>
   <v>       0.00013000       0.29519000      -0.43719000 </v>
   <v>       0.49987000      -0.29519000      -0.18718000 </v>
   <v>       0.24987000       0.29519000      -0.18718000 </v>
   <v>      -0.49995000      -0.32677000       0.06286000 </v>
   <v>       0.25005000       0.32677000       0.06286000 </v>
   <v>      -0.25005000      -0.32677000       0.31286000 </v>
   <v>      -0.24995000       0.32677000      -0.43714000 </v>
   <v>      -0.00005000       0.32677000       0.31286000 </v>
   <v>       0.00005000      -0.32677000      -0.43714000 </v>
   <v>       0.49995000       0.32677000      -0.18714000 </v>
   <v>       0.24995000      -0.32677000      -0.18714000 </v>
   <v>      -0.12461000       0.00017000       0.43687000 </v>
   <v>       0.37539000       0.00017000      -0.06313000 </v>
   <v>      -0.25013000      -0.07798000       0.06246000 </v>
   <v>      -0.00013000       0.07798000       0.06246000 </v>
   <v>      -0.24987000       0.07798000      -0.18754000 </v>
   <v>       0.00013000      -0.07798000      -0.18754000 </v>
   <v>      -0.12539000       0.00017000       0.18687000 </v>
   <v>      -0.12539000       0.00017000      -0.31313000 </v>
   <v>       0.12539000      -0.00016000      -0.06313000 </v>
   <v>      -0.37461000      -0.00016000      -0.06313000 </v>
   <v>      -0.24987000      -0.29519000       0.06281000 </v>
   <v>       0.00013000       0.29519000       0.06281000 </v>
   <v>      -0.25013000       0.29519000      -0.18718000 </v>
   <v>      -0.00013000      -0.29519000      -0.18718000 </v>
   <v>      -0.24995000       0.32677000       0.06286000 </v>
   <v>       0.00005000      -0.32677000       0.06286000 </v>
   <v>      -0.25005000      -0.32677000      -0.18714000 </v>
   <v>      -0.00005000       0.32677000      -0.18714000 </v>
   <v>      -0.12461000       0.00017000      -0.06313000 </v>
  </varray>
 </structure>
 <varray name="primitive_index" >
  <v type="int" >        1 </v>
  <v type="int" >       54 </v>
  <v type="int" >       49 </v>
  <v type="int" >       55 </v>
  <v type="int" >       56 </v>
  <v type="int" >       13 </v>
  <v type="int" >        3 </v>
  <v type="int" >       14 </v>
  <v type="int" >       18 </v>
  <v type="int" >       17 </v>
  <v type="int" >       27 </v>
  <v type="int" >       24 </v>
  <v type="int" >       33 </v>
  <v type="int" >       34 </v>
  <v type="int" >       44 </v>
  <v type="int" >       39 </v>
  <v type="int" >        5 </v>
  <v type="int" >        2 </v>
  <v type="int" >        9 </v>
  <v type="int" >       47 </v>
  <v type="int" >       53 </v>
  <v type="int" >       60 </v>
  <v type="int" >       48 </v>
  <v type="int" >       50 </v>
  <v type="int" >       62 </v>
  <v type="int" >       59 </v>
  <v type="int" >       57 </v>
  <v type="int" >       19 </v>
  <v type="int" >       21 </v>
  <v type="int" >       16 </v>
  <v type="int" >       28 </v>
  <v type="int" >       22 </v>
  <v type="int" >       23 </v>
  <v type="int" >       26 </v>
  <v type="int" >       25 </v>
  <v type="int" >       36 </v>
  <v type="int" >       31 </v>
  <v type="int" >       38 </v>
  <v type="int" >       43 </v>
  <v type="int" >       37 </v>
  <v type="int" >       40 </v>
  <v type="int" >       41 </v>
  <v type="int" >       42 </v>
  <v type="int" >        4 </v>
  <v type="int" >        8 </v>
  <v type="int" >       52 </v>
  <v type="int" >       51 </v>
  <v type="int" >       61 </v>
  <v type="int" >       58 </v>
  <v type="int" >        6 </v>
  <v type="int" >       12 </v>
  <v type="int" >        7 </v>
  <v type="int" >       10 </v>
  <v type="int" >       20 </v>
  <v type="int" >       15 </v>
  <v type="int" >       29 </v>
  <v type="int" >       30 </v>
  <v type="int" >       35 </v>
  <v type="int" >       32 </v>
  <v type="int" >       46 </v>
  <v type="int" >       45 </v>
  <v type="int" >       11 </v>
 </varray>
 <kpoints>
  <generation param="Gamma">
   <v type="int" name="divisions">       2        2        2 </v>
   <v name="usershift">      0.00000000       0.00000000       0.00000000 </v>
   <v name="genvec1">      0.50000000       0.00000000       0.00000000 </v>
   <v name="genvec2">      0.00000000       0.50000000       0.00000000 </v>
   <v name="genvec3">      0.00000000       0.00000000       0.50000000 </v>
   <v name="shift">      0.00000000       0.00000000       0.00000000 </v>
  </generation>
  <varray name="kpointlist" >
   <v>       0.00000000       0.00000000       0.00000000 </v>
   <v>       0.50000000       0.00000000       0.00000000 </v>
   <v>       0.00000000       0.50000000       0.00000000 </v>
   <v>       0.50000000       0.50000000       0.00000000 </v>
   <v>       0.00000000       0.00000000       0.50000000 </v>
   <v>       0.50000000       0.00000000       0.50000000 </v>
   <v>       0.00000000       0.50000000       0.50000000 </v>
   <v>       0.50000000       0.50000000       0.50000000 </v>
  </varray>
  <varray name="weights" >
   <v>       0.12500000 </v>
   <v>       0.12500000 </v>
   <v>       0.12500000 </v>
   <v>       0.12500000 </v>
   <v>       0.12500000 </v>
   <v>       0.12500000 </v>
   <v>       0.12500000 </v>
   <v>       0.12500000 </v>
  </varray>
  <varray name="tetrahedronlist"  type="int" >
   <v type="int" >        2        1        2        4        5 </v>
   <v type="int" >        2        1        3        4        5 </v>
   <v type="int" >        2        3        4        5        7 </v>
   <v type="int" >        2        2        4        5        6 </v>
   <v type="int" >        2        4        5        6        8 </v>
   <v type="int" >        2        4        5        7        8 </v>
   <v type="int" >        2        1        2        3        6 </v>
   <v type="int" >        2        2        3        4        6 </v>
   <v type="int" >        2        3        4        6        8 </v>
   <v type="int" >        2        1        3        5        6 </v>
   <v type="int" >        2        3        5        6        7 </v>
   <v type="int" >        2        3        6        7        8 </v>
   <v type="int" >        2        2        3        4        7 </v>
   <v type="int" >        2        1        2        3        7 </v>
   <v type="int" >        2        1        2        5        7 </v>
   <v type="int" >        2        2        4        7        8 </v>
   <v type="int" >        2        2        6        7        8 </v>
   <v type="int" >        2        2        5        6        7 </v>
   <v type="int" >        2        1        3        4        8 </v>
   <v type="int" >        2        1        2        4        8 </v>
   <v type="int" >        2        1        2        6        8 </v>
   <v type="int" >        2        1        3        7        8 </v>
   <v type="int" >        2        1        5        7        8 </v>
   <v type="int" >        2        1        5        6        8 </v>
  </varray>
  <i name="volumeweight">      0.02083333 </i>
 </kpoints>
 <parameters>
  <separator name="general" >
   <i type="string" name="SYSTEM">La2O2S</i>
   <i type="logical" name="LCOMPAT"> F  </i>
  </separator>
  <separator name="electronic" >
   <i type="string" name="PREC">normal</i>
   <i name="ENMAX">    600.00000000</i>
   <i name="ENAUG">    900.00000000</i>
   <i name="EDIFF">      0.00000100</i>
   <i type="int" name="IALGO">    38</i>
   <i type="int" name="IWAVPR">    11</i>
   <i type="int" name="NBANDS">   308</i>
   <i name="NELECT">    472.00000000</i>
   <i type="int" name="TURBO">     0</i>
   <i type="int" name="IRESTART">     0</i>
   <i type="int" name="NREBOOT">     0</i>
   <i type="int" name="NMIN">     0</i>
   <i name="EREF">      0.00000000</i>
   <separator name="electronic smearing" >
    <i type="int" name="ISMEAR">    -5</i>
    <i name="SIGMA">      0.20000000</i>
    <i name="KSPACING">      0.50000000</i>
    <i type="logical" name="KGAMMA"> T  </i>
   </separator>
   <separator name="electronic projectors" >
    <i type="logical" name="LREAL"> F  </i>
    <v name="ROPT">      0.00000000      0.00000000      0.00000000      0.00000000      0.00000000</v>
    <i type="int" name="LMAXPAW">  -100</i>
    <i type="int" name="LMAXMIX">     2</i>
    <i type="logical" name="NLSPLINE"> F  </i>
   </separator>
   <separator name="electronic startup" >
    <i type="int" name="ISTART">     0</i>
    <i type="int" name="ICHARG">     2</i>
    <i type="int" name="INIWAV">     1</i>
   </separator>
   <separator name="electronic spin" >
    <i type="int" name="ISPIN">     1</i>
    <i type="logical" name="LNONCOLLINEAR"> F  </i>
    <v name="MAGMOM">      1.00000000      1.00000000      1.00000000      1.00000000      1.00000000      1.00000000      1.00000000      1.00000000      1.00000000      1.00000000      1.00000000      1.00000000      1.00000000      1.00000000      1.00000000      1.00000000      1.00000000      1.00000000      1.00000000      1.00000000
      1.00000000      1.00000000      1.00000000      1.00000000      1.00000000      1.00000000      1.00000000      1.00000000      1.00000000      1.00000000      1.00000000      1.00000000      1.00000000      1.00000000      1.00000000      1.00000000      1.00000000      1.00000000      1.00000000      1.00000000
      1.00000000      1.00000000      1.00000000      1.00000000      1.00000000      1.00000000      1.00000000      1.00000000      1.00000000      1.00000000      1.00000000      1.00000000      1.00000000      1.00000000      1.00000000      1.00000000      1.00000000      1.00000000      1.00000000      1.00000000
      1.00000000      1.00000000</v>
    <i name="NUPDOWN">     -1.00000000</i>
    <i type="logical" name="LSORBIT"> F  </i>
    <v name="SAXIS">      0.00000000      0.00000000      1.00000000</v>
    <i type="logical" name="LSPIRAL"> F  </i>
    <v name="QSPIRAL">      0.00000000      0.00000000      0.00000000</v>
    <i type="logical" name="LZEROZ"> F  </i>
   </separator>
   <separator name="electronic exchange-correlation" >
    <i type="logical" name="LASPH"> F  </i>
    <i type="logical" name="LMETAGGA"> F  </i>
   </separator>
   <separator name="electronic convergence" >
    <i type="int" name="NELM">    60</i>
    <i type="int" name="NELMDL">    -5</i>
    <i type="int" name="NELMIN">     4</i>
    <i name="ENINI">    600.00000000</i>
    <separator name="electronic convergence detail" >
     <i type="logical" name="LDIAG"> T  </i>
     <i type="logical" name="LSUBROT"> F  </i>
     <i name="WEIMIN">      0.00100000</i>
     <i name="EBREAK">      0.00000000</i>
     <i name="DEPER">      0.30000000</i>
     <i type="int" name="NRMM">     4</i>
     <i name="TIME">      0.40000000</i>
    </separator>
   </separator>
   <separator name="electronic mixer" >
    <i name="AMIX">      0.40000000</i>
    <i name="BMIX">      1.00000000</i>
    <i name="AMIN">      0.10000000</i>
    <i name="AMIX_MAG">      1.60000000</i>
    <i name="BMIX_MAG">      1.00000000</i>
    <separator name="electronic mixer details" >
     <i type="int" name="IMIX">     4</i>
     <i type="logical" name="MIXFIRST"> F  </i>
     <i type="int" name="MAXMIX">   -45</i>
     <i name="WC">    100.00000000</i>
     <i type="int" name="INIMIX">     1</i>
     <i type="int" name="MIXPRE">     1</i>
     <i type="int" name="MREMOVE">     5</i>
    </separator>
   </separator>
   <separator name="electronic dipolcorrection" >
    <i type="logical" name="LDIPOL"> F  </i>
    <i type="logical" name="LMONO"> F  </i>
    <i type="int" name="IDIPOL">     0</i>
    <i name="EPSILON">      1.00000000</i>
    <v name="DIPOL">   -100.00000000   -100.00000000   -100.00000000</v>
    <i name="EFIELD">      0.00000000</i>
   </separator>
  </separator>
  <separator name="grids" >
   <i type="int" name="NGX">    70</i>
   <i type="int" name="NGY">    60</i>
   <i type="int" name="NGZ">    70</i>
   <i type="int" name="NGXF">   140</i>
   <i type="int" name="NGYF">   120</i>
   <i type="int" name="NGZF">   140</i>
   <i type="logical" name="ADDGRID"> F  </i>
  </separator>
  <separator name="ionic" >
   <i type="int" name="NSW">   200</i>
   <i type="int" name="IBRION">     2</i>
   <i type="int" name="MDALGO">     0</i>
   <i type="int" name="ISIF">     3</i>
   <i name="PSTRESS">      0.00000000</i>
   <i name="EDIFFG">     -0.01000000</i>
   <i type="int" name="NFREE">    10</i>
   <i name="POTIM">      0.50000000</i>
   <i name="SMASS">     -3.00000000</i>
   <i name="SCALEE">      1.00000000</i>
  </separator>
  <separator name="ionic md" >
   <i name="TEBEG">      0.00010000</i>
   <i name="TEEND">      0.00010000</i>
   <i type="int" name="NBLOCK">     1</i>
   <i type="int" name="KBLOCK">   200</i>
   <i type="int" name="NPACO">   256</i>
   <i name="APACO">     16.00000000</i>
  </separator>
  <separator name="symmetry" >
   <i type="int" name="ISYM">     2</i>
   <i name="SYMPREC">      0.00001000</i>
  </separator>
  <separator name="dos" >
   <i type="int" name="LORBIT">     0</i>
   <v name="RWIGS">     -1.00000000     -1.00000000     -1.00000000     -1.00000000     -1.00000000</v>
   <i type="int" name="NEDOS">   301</i>
   <i name="EMIN">     10.00000000</i>
   <i name="EMAX">    -10.00000000</i>
   <i name="EFERMI">      0.00000000</i>
  </separator>
  <separator name="writing" >
   <i type="int" name="NWRITE">     2</i>
   <i type="logical" name="LWAVE"> F  </i>
   <i type="logical" name="LDOWNSAMPLE"> F  </i>
   <i type="logical" name="LCHARG"> F  </i>
   <i type="logical" name="LPARD"> F  </i>
   <i type="logical" name="LVTOT"> F  </i>
   <i type="logical" name="LVHAR"> F  </i>
   <i type="logical" name="LELF"> F  </i>
   <i type="logical" name="LOPTICS"> F  </i>
   <v name="STM">      0.00000000      0.00000000      0.00000000      0.00000000      0.00000000      0.00000000      0.00000000</v>
  </separator>
  <separator name="performance" >
   <i type="int" name="NPAR">    28</i>
   <i type="int" name="NSIM">     4</i>
   <i type="int" name="NBLK">    -1</i>
   <i type="logical" name="LPLANE"> T  </i>
   <i type="logical" name="LSCALAPACK"> T  </i>
   <i type="logical" name="LSCAAWARE"> F  </i>
   <i type="logical" name="LSCALU"> F  </i>
   <i type="logical" name="LASYNC"> F  </i>
   <i type="logical" name="LORBITALREAL"> F  </i>
  </separator>
  <separator name="miscellaneous" >
   <i type="int" name="IDIOT">     3</i>
   <i type="int" name="ISPECIAL">     0</i>
   <i type="logical" name="LMUSIC"> F  </i>
   <v name="POMASS">      7.01000000     24.30500000    208.98000000     32.06600000     16.00000000</v>
   <v name="DARWINR">      0.00000000      0.00000000      0.00000000      0.00000000      0.00000000</v>
   <v name="DARWINV">      1.00000000      1.00000000      1.00000000      1.00000000      1.00000000</v>
   <i type="logical" name="LCORR"> T  </i>
  </separator>
  <i type="logical" name="GGA_COMPAT"> T  </i>
  <i type="logical" name="LBERRY"> F  </i>
  <i type="int" name="ICORELEVEL">     0</i>
  <i type="logical" name="LDAU"> F  </i>
  <i type="int" name="I_CONSTRAINED_M">     0</i>
  <separator name="electronic exchange-correlation" >
   <i type="string" name="GGA">--</i>
   <i type="int" name="VOSKOWN">     0</i>
   <i type="logical" name="LHFCALC"> F  </i>
   <i type="string" name="PRECFOCK"></i>
   <i type="logical" name="LSYMGRAD"> F  </i>
   <i type="logical" name="LHFONE"> F  </i>
   <i type="logical" name="LRHFCALC"> F  </i>
   <i type="logical" name="LTHOMAS"> F  </i>
   <i type="logical" name="LMODELHF"> F  </i>
   <i name="ENCUT4O">     -1.00000000</i>
   <i type="int" name="EXXOEP">     0</i>
   <i type="int" name="FOURORBIT">     0</i>
   <i name="AEXX">      0.00000000</i>
   <i name="HFALPHA">      0.00000000</i>
   <i name="MCALPHA">      0.00000000</i>
   <i name="ALDAX">      1.00000000</i>
   <i name="AGGAX">      1.00000000</i>
   <i name="ALDAC">      1.00000000</i>
   <i name="AGGAC">      1.00000000</i>
   <i type="int" name="NKREDX">     1</i>
   <i type="int" name="NKREDY">     1</i>
   <i type="int" name="NKREDZ">     1</i>
   <i type="logical" name="SHIFTRED"> F  </i>
   <i type="logical" name="ODDONLY"> F  </i>
   <i type="logical" name="EVENONLY"> F  </i>
   <i type="int" name="LMAXFOCK">     0</i>
   <i type="int" name="NMAXFOCKAE">     0</i>
   <i type="logical" name="LFOCKAEDFT"> F  </i>
   <i name="HFSCREEN">      0.00000000</i>
   <i name="HFSCREENC">      0.00000000</i>
   <i type="int" name="NBANDSGWLOW">     0</i>
  </separator>
  <separator name="vdW DFT" >
   <i type="logical" name="LUSE_VDW"> F  </i>
   <i name="Zab_VDW">     -0.84910000</i>
   <i name="PARAM1">      0.12340000</i>
   <i name="PARAM2">      1.00000000</i>
   <i name="PARAM3">      0.00000000</i>
  </separator>
  <separator name="model GW" >
   <i type="int" name="MODEL_GW">     0</i>
   <i name="MODEL_EPS0">     11.58240521</i>
   <i name="MODEL_ALPHA">      1.00000000</i>
  </separator>
  <separator name="linear response parameters" >
   <i type="logical" name="LEPSILON"> F  </i>
   <i type="logical" name="LRPA"> F  </i>
   <i type="logical" name="LNABLA"> F  </i>
   <i type="logical" name="LVEL"> F  </i>
   <i type="int" name="KINTER">     0</i>
   <i name="CSHIFT">      0.10000000</i>
   <i name="OMEGAMAX">     -1.00000000</i>
   <i name="DEG_THRESHOLD">      0.00200000</i>
   <i name="RTIME">     -0.10000000</i>
   <i name="WPLASMAI">      0.00000000</i>
   <v name="DFIELD">      0.00000000      0.00000000      0.00000000</v>
   <v name="WPLASMA">      0.00000000      0.00000000      0.00000000      0.00000000      0.00000000      0.00000000      0.00000000      0.00000000      0.00000000</v>
  </separator>
  <separator name="orbital magnetization" >
   <i type="logical" name="NUCIND"> F  </i>
   <v name="MAGPOS">      0.00000000      0.00000000      0.00000000</v>
   <i type="logical" name="LNICSALL"> T  </i>
   <i type="logical" name="ORBITALMAG"> F  </i>
   <i type="logical" name="LMAGBLOCH"> F  </i>
   <i type="logical" name="LCHIMAG"> F  </i>
   <i type="logical" name="LGAUGE"> T  </i>
   <i type="int" name="MAGATOM">     0</i>
   <v name="MAGDIPOL">      0.00000000      0.00000000      0.00000000</v>
   <v name="AVECCONST">      0.00000000      0.00000000      0.00000000</v>
  </separator>
  <separator name="response functions" >
   <i type="logical" name="LADDER"> F  </i>
   <i type="logical" name="LRPAFORCE"> F  </i>
   <i type="logical" name="LFXC"> F  </i>
   <i type="logical" name="LHARTREE"> T  </i>
   <i type="int" name="IBSE">     0</i>
   <v type="int" name="KPOINT">    -1     0     0     0</v>
   <i type="logical" name="LTCTE"> F  </i>
   <i type="logical" name="LTETE"> F  </i>
   <i type="logical" name="LTRIPLET"> F  </i>
   <i type="logical" name="LFXCEPS"> F  </i>
   <i type="logical" name="LFXHEG"> F  </i>
   <i type="int" name="NATURALO">     2</i>
   <i type="logical" name="L2ORDER"> F  </i>
   <i type="logical" name="LMP2LT"> F  </i>
   <i type="logical" name="LUSEW"> F  </i>
   <i name="ENCUTGW">     -2.00000000</i>
   <i name="ENCUTGWSOFT">     -2.00000000</i>
   <i name="ENCUTLF">     -1.00000000</i>
   <i type="int" name="LMAXMP2">    -1</i>
   <i name="SCISSOR">      0.00000000</i>
   <i type="int" name="NOMEGA">     0</i>
   <i type="int" name="NOMEGAR">     0</i>
   <i type="int" name="NBANDSGW">    -1</i>
   <i type="int" name="NBANDSO">    -1</i>
   <i type="int" name="NBANDSV">    -1</i>
   <i type="int" name="NELM">     1</i>
   <i type="int" name="NELMHF">     1</i>
   <i type="int" name="DIM">     3</i>
   <i type="int" name="ANTIRES">     0</i>
   <i name="OMEGAMAX">    -30.00000000</i>
   <i name="OMEGAMIN">    -30.00000000</i>
   <i name="OMEGATL">   -200.00000000</i>
   <i type="int" name="OMEGAGRID">   140</i>
   <i name="CSHIFT">     -0.10000000</i>
   <i type="logical" name="SELFENERGY"> F  </i>
   <i type="logical" name="LSPECTRAL"> F  </i>
   <i type="logical" name="LSPECTRALGW"> F  </i>
   <i type="logical" name="LSINGLES"> F  </i>
   <i type="logical" name="LFERMIGW"> F  </i>
   <i type="logical" name="ODDONLYGW"> F  </i>
   <i type="logical" name="EVENONLYGW"> F  </i>
   <i type="int" name="NKREDLFX">     1</i>
   <i type="int" name="NKREDLFY">     1</i>
   <i type="int" name="NKREDLFZ">     1</i>
   <i type="int" name="MAXMEM">  2800</i>
   <i type="int" name="TELESCOPE">     0</i>
   <i type="int" name="TAUPAR">     1</i>
   <i type="int" name="OMEGAPAR">    -1</i>
   <i name="LAMBDA">      1.00000000</i>
  </separator>
  <separator name="External order field" >
   <i name="OFIELD_KAPPA">      0.00000000</i>
   <v name="OFIELD_K">      0.00000000      0.00000000      0.00000000</v>
   <i name="OFIELD_Q6_NEAR">      0.00000000</i>
   <i name="OFIELD_Q6_FAR">      0.00000000</i>
   <i name="OFIELD_A">      0.00000000</i>
  </separator>
 </parameters>
 <atominfo>
  <atoms>      62 </atoms>
  <types>       5 </types>
  <array name="atoms" >
   <dimension dim="1">ion</dimension>
   <field type="string">element</field>
   <field type="int">atomtype</field>
   <set>
    <rc><c>Li</c><c>   1</c></rc>
    <rc><c>Li</c><c>   1</c></rc>
    <rc><c>Li</c><c>   1</c></rc>
    <rc><c>Li</c><c>   1</c></rc>
    <rc><c>Li</c><c>   1</c></rc>
    <rc><c>Li</c><c>   1</c></rc>
    <rc><c>Li</c><c>   1</c></rc>
    <rc><c>Li</c><c>   1</c></rc>
    <rc><c>Li</c><c>   1</c></rc>
    <rc><c>Li</c><c>   1</c></rc>
    <rc><c>Li</c><c>   1</c></rc>
    <rc><c>Li</c><c>   1</c></rc>
    <rc><c>Mg</c><c>   2</c></rc>
    <rc><c>Mg</c><c>   2</c></rc>
    <rc><c>Bi</c><c>   3</c></rc>
    <rc><c>Bi</c><c>   3</c></rc>
    <rc><c>Bi</c><c>   3</c></rc>
    <rc><c>Bi</c><c>   3</c></rc>
    <rc><c>Bi</c><c>   3</c></rc>
    <rc><c>Bi</c><c>   3</c></rc>
    <rc><c>Bi</c><c>   3</c></rc>
    <rc><c>Bi</c><c>   3</c></rc>
    <rc><c>Bi</c><c>   3</c></rc>
    <rc><c>Bi</c><c>   3</c></rc>
    <rc><c>Bi</c><c>   3</c></rc>
    <rc><c>Bi</c><c>   3</c></rc>
    <rc><c>Bi</c><c>   3</c></rc>
    <rc><c>Bi</c><c>   3</c></rc>
    <rc><c>Bi</c><c>   3</c></rc>
    <rc><c>Bi</c><c>   3</c></rc>
    <rc><c>S </c><c>   4</c></rc>
    <rc><c>S </c><c>   4</c></rc>
    <rc><c>S </c><c>   4</c></rc>
    <rc><c>S </c><c>   4</c></rc>
    <rc><c>S </c><c>   4</c></rc>
    <rc><c>S </c><c>   4</c></rc>
    <rc><c>S </c><c>   4</c></rc>
    <rc><c>S </c><c>   4</c></rc>
    <rc><c>S </c><c>   4</c></rc>
    <rc><c>S </c><c>   4</c></rc>
    <rc><c>S </c><c>   4</c></rc>
    <rc><c>S </c><c>   4</c></rc>
    <rc><c>S </c><c>   4</c></rc>
    <rc><c>S </c><c>   4</c></rc>
    <rc><c>S </c><c>   4</c></rc>
    <rc><c>S </c><c>   4</c></rc>
    <rc><c>O </c><c>   5</c></rc>
    <rc><c>O </c><c>   5</c></rc>
    <rc><c>O </c><c>   5</c></rc>
    <rc><c>O </c><c>   5</c></rc>
    <rc><c>O </c><c>   5</c></rc>
    <rc><c>O </c><c>   5</c></rc>
    <rc><c>O </c><c>   5</c></rc>
    <rc><c>O </c><c>   5</c></rc>
    <rc><c>O </c><c>   5</c></rc>
    <rc><c>O </c><c>   5</c></rc>
    <rc><c>O </c><c>   5</c></rc>
    <rc><c>O </c><c>   5</c></rc>
    <rc><c>O </c><c>   5</c></rc>
    <rc><c>O </c><c>   5</c></rc>
    <rc><c>O </c><c>   5</c></rc>
    <rc><c>O </c><c>   5</c></rc>
   </set>
  </array>
  <array name="atomtypes" >
   <dimension dim="1">type</dimension>
   <field type="int">atomspertype</field>
   <field type="string">element</field>
   <field>mass</field>
   <field>valence</field>
   <field type="string">pseudopotential</field>
   <set>
    <rc><c>  12</c><c>Li</c><c>      7.01000000</c><c>      3.00000000</c><c>  PAW_PBE Li_sv 10Sep2004               </c></rc>
    <rc><c>   2</c><c>Mg</c><c>     24.30500000</c><c>      2.00000000</c><c>  PAW_PBE Mg 13Apr2007                  </c></rc>
    <rc><c>  16</c><c>Bi</c><c>    208.98000000</c><c>     15.00000000</c><c>  PAW_PBE Bi_d 06Sep2000                </c></rc>
    <rc><c>  16</c><c>S </c><c>     32.06600000</c><c>      6.00000000</c><c>  PAW_PBE S 06Sep2000                   </c></rc>
    <rc><c>  16</c><c>O </c><c>     16.00000000</c><c>      6.00000000</c><c>  PAW_PBE O 08Apr2002                   </c></rc>
   </set>
  </array>
 </atominfo>
 <structure name="initialpos" >
  <crystal>
   <varray name="basis" >
    <v>      11.17850000       0.00000000       0.00000000 </v>
    <v>       0.00000000       9.57460000       0.00000000 </v>
    <v>       0.00000000       0.00000000      11.18240000 </v>
   </varray>
   <i name="volume">   1196.84853820 </i>
   <varray name="rec_basis" >
    <v>       0.08945744       0.00000000       0.00000000 </v>
    <v>       0.00000000       0.10444301       0.00000000 </v>
    <v>       0.00000000       0.00000000       0.08942624 </v>
   </varray>
  </crystal>
  <varray name="positions" >
   <v>       0.37539000       0.00017000       0.43687000 </v>
   <v>       0.12461000       0.99984000       0.18687000 </v>
   <v>       0.37461000       0.00017000       0.18687000 </v>
   <v>       0.87539000       0.00017000       0.43687000 </v>
   <v>       0.62461000       0.99984000       0.18687000 </v>
   <v>       0.87461000       0.00017000       0.18687000 </v>
   <v>       0.12539000       0.99984000       0.93687000 </v>
   <v>       0.37539000       0.00017000       0.93687000 </v>
   <v>       0.12461000       0.99984000       0.68687000 </v>
   <v>       0.62539000       0.99984000       0.93687000 </v>
   <v>       0.87539000       0.00017000       0.93687000 </v>
   <v>       0.87461000       0.00017000       0.68687000 </v>
   <v>       0.62539000       0.99984000       0.43687000 </v>
   <v>       0.37461000       0.00017000       0.68687000 </v>
   <v>       0.00013000       0.29519000       0.06281000 </v>
   <v>       0.25013000       0.70481000       0.06281000 </v>
   <v>       0.24987000       0.29519000       0.31282000 </v>
   <v>       0.49987000       0.70481000       0.31282000 </v>
   <v>       0.50013000       0.29519000       0.06281000 </v>
   <v>       0.75013000       0.70481000       0.06281000 </v>
   <v>       0.74987000       0.29519000       0.31282000 </v>
   <v>       0.99987000       0.70481000       0.31282000 </v>
   <v>       0.00013000       0.29519000       0.56281000 </v>
   <v>       0.25013000       0.70481000       0.56281000 </v>
   <v>       0.24987000       0.29519000       0.81282000 </v>
   <v>       0.49987000       0.70481000       0.81282000 </v>
   <v>       0.50013000       0.29519000       0.56281000 </v>
   <v>       0.75013000       0.70481000       0.56281000 </v>
   <v>       0.74987000       0.29519000       0.81282000 </v>
   <v>       0.99987000       0.70481000       0.81282000 </v>
   <v>       0.25005000       0.32677000       0.06286000 </v>
   <v>       0.00005000       0.67323000       0.06286000 </v>
   <v>       0.49995000       0.32677000       0.31286000 </v>
   <v>       0.24995000       0.67323000       0.31286000 </v>
   <v>       0.75005000       0.32677000       0.06286000 </v>
   <v>       0.50005000       0.67323000       0.06286000 </v>
   <v>       0.99995000       0.32677000       0.31286000 </v>
   <v>       0.74995000       0.67323000       0.31286000 </v>
   <v>       0.25005000       0.32677000       0.56286000 </v>
   <v>       0.00005000       0.67323000       0.56286000 </v>
   <v>       0.49995000       0.32677000       0.81286000 </v>
   <v>       0.24995000       0.67323000       0.81286000 </v>
   <v>       0.75005000       0.32677000       0.56286000 </v>
   <v>       0.50005000       0.67323000       0.56286000 </v>
   <v>       0.99995000       0.32677000       0.81286000 </v>
   <v>       0.74995000       0.67323000       0.81286000 </v>
   <v>       0.49987000       0.07798000       0.06246000 </v>
   <v>       0.24987000       0.92202000       0.06246000 </v>
   <v>       0.25013000       0.07798000       0.31246000 </v>
   <v>       0.00013000       0.92202000       0.31246000 </v>
   <v>       0.99987000       0.07798000       0.06246000 </v>
   <v>       0.74987000       0.92202000       0.06246000 </v>
   <v>       0.75013000       0.07798000       0.31246000 </v>
   <v>       0.50013000       0.92202000       0.31246000 </v>
   <v>       0.49987000       0.07798000       0.56246000 </v>
   <v>       0.24987000       0.92202000       0.56246000 </v>
   <v>       0.25013000       0.07798000       0.81246000 </v>
   <v>       0.00013000       0.92202000       0.81246000 </v>
   <v>       0.99987000       0.07798000       0.56246000 </v>
   <v>       0.74987000       0.92202000       0.56246000 </v>
   <v>       0.75013000       0.07798000       0.81246000 </v>
   <v>       0.50013000       0.92202000       0.81246000 </v>
  </varray>
 </structure>
 <calculation>
  <scstep>
   <time name="dav">   64.86   65.20</time>
   <time name="total">   64.95   65.28</time>
   <energy>
    <i name="alphaZ">   1079.87189334 </i>
    <i name="ewald"> -31110.14356031 </i>
    <i name="hartreedc"> -12714.88086784 </i>
    <i name="XCdc">   1468.88803845 </i>
    <i name="pawpsdc">  36917.91861236 </i>
    <i name="pawaedc"> -36503.41947684 </i>
    <i name="eentropy">      0.00000000 </i>
    <i name="bandstr">   1589.17530602 </i>
    <i name="atom">  45173.57650906 </i>
    <i name="e_fr_energy">   5900.98645425 </i>
    <i name="e_wo_entrp">   5900.98645425 </i>
    <i name="e_0_energy">   5900.98645425 </i>
   </energy>
  </scstep>
  <scstep>
   <time name="dav">   65.23   65.66</time>
   <time name="total">   65.25   65.67</time>
   <energy>
    <i name="e_fr_energy">    755.62104000 </i>
    <i name="e_wo_entrp">    755.62104000 </i>
    <i name="e_0_energy">    755.62104000 </i>
   </energy>
  </scstep>
  <scstep>
   <time name="dav">   70.90   71.36</time>
   <time name="total">   70.90   71.37</time>
   <energy>
    <i name="e_fr_energy">   -243.18890461 </i>
    <i name="e_wo_entrp">   -243.18890461 </i>
    <i name="e_0_energy">   -243.18890461 </i>
   </energy>
  </scstep>
  <scstep>
   <time name="dav">   79.95   80.52</time>
   <time name="total">   79.95   80.52</time>
   <energy>
    <i name="e_fr_energy">   -352.24828643 </i>
    <i name="e_wo_entrp">   -352.24828643 </i>
    <i name="e_0_energy">   -352.24828643 </i>
   </energy>
  </scstep>
  <scstep>
   <time name="dav">  103.53  105.34</time>
   <time name="total">  104.24  106.06</time>
   <energy>
    <i name="e_fr_energy">   -361.12012593 </i>
    <i name="e_wo_entrp">   -361.12012593 </i>
    <i name="e_0_energy">   -361.12012593 </i>
   </energy>
  </scstep>
  <scstep>
   <time name="dav">   91.48   93.04</time>
   <time name="total">   92.27   93.83</time>
   <energy>
    <i name="e_fr_energy">   -301.14097092 </i>
    <i name="e_wo_entrp">   -301.14097092 </i>
    <i name="e_0_energy">   -301.14097092 </i>
   </energy>
  </scstep>
  <scstep>
   <time name="dav">   71.98   72.35</time>
   <time name="total">   72.77   73.15</time>
   <energy>
    <i name="e_fr_energy">   -303.33292452 </i>
    <i name="e_wo_entrp">   -303.33292452 </i>
    <i name="e_0_energy">   -303.33292452 </i>
   </energy>
  </scstep>
  <scstep>
   <time name="dav">   83.81   84.36</time>
   <time name="total">   84.60   85.16</time>
   <energy>
    <i name="e_fr_energy">   -301.93637945 </i>
    <i name="e_wo_entrp">   -301.93637945 </i>
    <i name="e_0_energy">   -301.93637945 </i>
   </energy>
  </scstep>
  <scstep>
   <time name="dav">   94.08   94.78</time>
   <time name="total">   94.87   95.58</time>
   <energy>
    <i name="e_fr_energy">   -301.31628245 </i>
    <i name="e_wo_entrp">   -301.31628245 </i>
    <i name="e_0_energy">   -301.31628245 </i>
   </energy>
  </scstep>
  <scstep>
   <time name="dav">   80.12   80.63</time>
   <time name="total">   80.89   81.43</time>
   <energy>
    <i name="e_fr_energy">   -301.27757305 </i>
    <i name="e_wo_entrp">   -301.27757305 </i>
    <i name="e_0_energy">   -301.27757305 </i>
   </energy>
  </scstep>
  <scstep>
   <time name="dav">   82.69   83.75</time>
   <time name="total">   83.48   84.54</time>
   <energy>
    <i name="e_fr_energy">   -301.29042486 </i>
    <i name="e_wo_entrp">   -301.29042486 </i>
    <i name="e_0_energy">   -301.29042486 </i>
   </energy>
  </scstep>
  <scstep>
   <time name="dav">   81.69   82.21</time>
   <time name="total">   82.48   83.01</time>
   <energy>
    <i name="e_fr_energy">   -301.29510413 </i>
    <i name="e_wo_entrp">   -301.29510413 </i>
    <i name="e_0_energy">   -301.29510413 </i>
   </energy>
  </scstep>
  <scstep>
   <time name="dav">   83.79   84.22</time>
   <time name="total">   84.59   85.01</time>
   <energy>
    <i name="e_fr_energy">   -301.29592058 </i>
    <i name="e_wo_entrp">   -301.29592058 </i>
    <i name="e_0_energy">   -301.29592058 </i>
   </energy>
  </scstep>
  <scstep>
   <time name="dav">   76.04   77.51</time>
   <time name="total">   76.84   78.31</time>
   <energy>
    <i name="e_fr_energy">   -301.29619229 </i>
    <i name="e_wo_entrp">   -301.29619229 </i>
    <i name="e_0_energy">   -301.29619229 </i>
   </energy>
  </scstep>
  <scstep>
   <time name="dav">   92.59   93.28</time>
   <time name="total">   93.38   94.07</time>
   <energy>
    <i name="e_fr_energy">   -301.29622861 </i>
    <i name="e_wo_entrp">   -301.29622861 </i>
    <i name="e_0_energy">   -301.29622861 </i>
   </energy>
  </scstep>
  <scstep>
   <time name="dav">   69.67   69.90</time>
   <time name="total">   70.46   70.70</time>
   <energy>
    <i name="e_fr_energy">   -301.29624469 </i>
    <i name="e_wo_entrp">   -301.29624469 </i>
    <i name="e_0_energy">   -301.29624469 </i>
   </energy>
  </scstep>
  <scstep>
   <time name="dav">   72.62   72.77</time>
   <time name="total">   73.41   73.56</time>
   <energy>
    <i name="e_fr_energy">   -301.29624742 </i>
    <i name="e_wo_entrp">   -301.29624742 </i>
    <i name="e_0_energy">   -301.29624742 </i>
   </energy>
  </scstep>
  <scstep>
   <time name="dav">   55.01   55.18</time>
   <time name="total">   55.08   55.26</time>
   <energy>
    <i name="alphaZ">   1079.87189334 </i>
    <i name="ewald"> -31110.14356031 </i>
    <i name="hartreedc"> -12950.87855139 </i>
    <i name="XCdc">   1491.82592529 </i>
    <i name="pawpsdc">  43947.48401861 </i>
    <i name="pawaedc"> -43508.48883646 </i>
    <i name="eentropy">      0.00000000 </i>
    <i name="bandstr">  -4424.54364595 </i>
    <i name="atom">  45173.57650906 </i>
    <i name="e_fr_energy">   -301.29624779 </i>
    <i name="e_wo_entrp">   -301.29624779 </i>
    <i name="e_0_energy">   -301.29624779 </i>
   </energy>
  </scstep>
  <structure>
   <crystal>
    <varray name="basis" >
     <v>      11.17850000       0.00000000       0.00000000 </v>
     <v>       0.00000000       9.57460000       0.00000000 </v>
     <v>       0.00000000       0.00000000      11.18240000 </v>
    </varray>
    <i name="volume">   1196.84853820 </i>
    <varray name="rec_basis" >
     <v>       0.08945744       0.00000000       0.00000000 </v>
     <v>       0.00000000       0.10444301       0.00000000 </v>
     <v>       0.00000000       0.00000000       0.08942624 </v>
    </varray>
   </crystal>
   <varray name="positions" >
    <v>       0.37539000       0.00017000       0.43687000 </v>
    <v>       0.12461000       0.99984000       0.18687000 </v>
    <v>       0.37461000       0.00017000       0.18687000 </v>
    <v>       0.87539000       0.00017000       0.43687000 </v>
    <v>       0.62461000       0.99984000       0.18687000 </v>
    <v>       0.87461000       0.00017000       0.18687000 </v>
    <v>       0.12539000       0.99984000       0.93687000 </v>
    <v>       0.37539000       0.00017000       0.93687000 </v>
    <v>       0.12461000       0.99984000       0.68687000 </v>
    <v>       0.62539000       0.99984000       0.93687000 </v>
    <v>       0.87539000       0.00017000       0.93687000 </v>
    <v>       0.87461000       0.00017000       0.68687000 </v>
    <v>       0.62539000       0.99984000       0.43687000 </v>
    <v>       0.37461000       0.00017000       0.68687000 </v>
    <v>       0.00013000       0.29519000       0.06281000 </v>
    <v>       0.25013000       0.70481000       0.06281000 </v>
    <v>       0.24987000       0.29519000       0.31282000 </v>
    <v>       0.49987000       0.70481000       0.31282000 </v>
    <v>       0.50013000       0.29519000       0.06281000 </v>
    <v>       0.75013000       0.70481000       0.06281000 </v>
    <v>       0.74987000       0.29519000       0.31282000 </v>
    <v>       0.99987000       0.70481000       0.31282000 </v>
    <v>       0.00013000       0.29519000       0.56281000 </v>
    <v>       0.25013000       0.70481000       0.56281000 </v>
    <v>       0.24987000       0.29519000       0.81282000 </v>
    <v>       0.49987000       0.70481000       0.81282000 </v>
    <v>       0.50013000       0.29519000       0.56281000 </v>
    <v>       0.75013000       0.70481000       0.56281000 </v>
    <v>       0.74987000       0.29519000       0.81282000 </v>
    <v>       0.99987000       0.70481000       0.81282000 </v>
    <v>       0.25005000       0.32677000       0.06286000 </v>
    <v>       0.00005000       0.67323000       0.06286000 </v>
    <v>       0.49995000       0.32677000       0.31286000 </v>
    <v>       0.24995000       0.67323000       0.31286000 </v>
    <v>       0.75005000       0.32677000       0.06286000 </v>
    <v>       0.50005000       0.67323000       0.06286000 </v>
    <v>       0.99995000       0.32677000       0.31286000 </v>
    <v>       0.74995000       0.67323000       0.31286000 </v>
    <v>       0.25005000       0.32677000       0.56286000 </v>
    <v>       0.00005000       0.67323000       0.56286000 </v>
    <v>       0.49995000       0.32677000       0.81286000 </v>
    <v>       0.24995000       0.67323000       0.81286000 </v>
    <v>       0.75005000       0.32677000       0.56286000 </v>
    <v>       0.50005000       0.67323000       0.56286000 </v>
    <v>       0.99995000       0.32677000       0.81286000 </v>
    <v>       0.74995000       0.67323000       0.81286000 </v>
    <v>       0.49987000       0.07798000       0.06246000 </v>
    <v>       0.24987000       0.92202000       0.06246000 </v>
    <v>       0.25013000       0.07798000       0.31246000 </v>
    <v>       0.00013000       0.92202000       0.31246000 </v>
    <v>       0.99987000       0.07798000       0.06246000 </v>
    <v>       0.74987000       0.92202000       0.06246000 </v>
    <v>       0.75013000       0.07798000       0.31246000 </v>
    <v>       0.50013000       0.92202000       0.31246000 </v>
    <v>       0.49987000       0.07798000       0.56246000 </v>
    <v>       0.24987000       0.92202000       0.56246000 </v>
    <v>       0.25013000       0.07798000       0.81246000 </v>
    <v>       0.00013000       0.92202000       0.81246000 </v>
    <v>       0.99987000       0.07798000       0.56246000 </v>
    <v>       0.74987000       0.92202000       0.56246000 </v>
    <v>       0.75013000       0.07798000       0.81246000 </v>
    <v>       0.50013000       0.92202000       0.81246000 </v>
   </varray>
  </structure>
  <varray name="forces" >
   <v>      -0.86268570       0.06986670      -0.30441442 </v>
   <v>      -0.03210453       0.00318519       0.49164135 </v>
   <v>      -0.28526036       0.13190297       0.07668013 </v>
   <v>       0.84479008      -0.06541145       0.16741357 </v>
   <v>       0.04798085       0.00282222      -0.49718983 </v>
   <v>       0.29799079      -0.12786868       0.07238297 </v>
   <v>      -0.13264601      -0.06495824       0.09937523 </v>
   <v>       0.12974907      -0.06392523       0.32331958 </v>
   <v>      -0.51317139       0.00101307      -0.48645878 </v>
   <v>       0.10882801       0.06806657      -0.41086759 </v>
   <v>      -0.13350055       0.06465956      -0.14827201 </v>
   <v>      -0.21318183       0.12989490      -0.06705956 </v>
   <v>       0.23388027      -0.10680516       0.85924162 </v>
   <v>       0.55858560      -0.23060883       0.00382319 </v>
   <v>      -0.01337534      -0.01250204       0.03339655 </v>
   <v>      -0.15277057      -0.00777528       0.09912067 </v>
   <v>      -0.34611609      -1.00311730       0.07738576 </v>
   <v>      -0.19015404      -1.07493041      -0.17382058 </v>
   <v>      -0.01353969       0.03783026      -0.04666056 </v>
   <v>       0.15516839      -0.00949250      -0.10743755 </v>
   <v>       0.35821656       1.06012918      -0.10916327 </v>
   <v>       0.21190627       1.02787834       0.13685840 </v>
   <v>       0.09646265      -1.00797268      -0.15797671 </v>
   <v>      -0.46888407      -0.05187055      -0.30346430 </v>
   <v>      -0.24569782       1.03672832       0.10910333 </v>
   <v>       0.29575528       0.00447835       0.03237826 </v>
   <v>       0.12985534       0.96878058       0.17022610 </v>
   <v>       0.21715069       0.00371655       0.28988087 </v>
   <v>       0.06667979      -1.00866682      -0.09080071 </v>
   <v>      -0.10301320      -0.00735504      -0.03180540 </v>
   <v>       0.07386863       0.18778820      -0.18546649 </v>
   <v>       0.00479770      -0.22014069      -0.10602841 </v>
   <v>       0.22617731       0.09666049       0.11844726 </v>
   <v>       0.27940597      -0.15753955      -0.01402867 </v>
   <v>      -0.08284879       0.18637042       0.18819059 </v>
   <v>       0.00129898      -0.14892927       0.08827543 </v>
   <v>      -0.20352002       0.18809056      -0.11432322 </v>
   <v>      -0.30860666      -0.13690953       0.04256134 </v>
   <v>       0.30593189       0.10139658       0.24032074 </v>
   <v>      -0.01002017      -0.19741984       0.11563954 </v>
   <v>      -0.23574049       0.08254219      -0.10059472 </v>
   <v>       0.10935918      -0.14943509      -0.04543392 </v>
   <v>      -0.28605562       0.12089176      -0.25114178 </v>
   <v>      -0.01561573      -0.05314335      -0.10522189 </v>
   <v>       0.19642302       0.22775724       0.10214904 </v>
   <v>      -0.05540307      -0.16626947       0.02285899 </v>
   <v>       0.00632734      -0.08562377       0.07969113 </v>
   <v>       0.09229670       0.01935403      -0.15215133 </v>
   <v>       0.81315501       0.76512092      -0.58462347 </v>
   <v>      -0.74916733      -0.81957461      -0.65084782 </v>
   <v>       0.00532850       0.02985346      -0.07418608 </v>
   <v>      -0.08193043       0.02138082       0.15315286 </v>
   <v>      -0.72532096      -0.81398783       0.46970648 </v>
   <v>       0.62657037       0.87273610       0.55569289 </v>
   <v>      -0.58210521      -0.70386369      -0.72827353 </v>
   <v>       1.26191311       0.13231034       1.17483573 </v>
   <v>       0.55063157      -0.78537079      -0.48033371 </v>
   <v>       0.14627293      -0.02978921       0.07279811 </v>
   <v>      -0.59061095       0.82705160       0.65364714 </v>
   <v>      -0.09922467      -0.00503938      -1.26928902 </v>
   <v>       0.53066243       0.80092883       0.62498518 </v>
   <v>      -1.25114898       0.04510995       0.05215530 </v>
  </varray>
  <varray name="stress" >
   <v>      -8.46013847       0.32931581      -0.70924320 </v>
   <v>       0.32931569     -14.51673689       0.22525183 </v>
   <v>      -0.70924353       0.22525148      -8.59274676 </v>
  </varray>
  <energy>
   <i name="e_fr_energy">   -317.14555111 </i>
   <i name="e_wo_entrp">   -317.14555111 </i>
   <i name="e_0_energy">      0.00000000 </i>
  </energy>
  <time name="totalsc"> 1555.99 1568.58</time>
 </calculation>
 <calculation>
  <scstep>
   <time name="dav">   67.10   67.52</time>
   <time name="total">   67.89   68.31</time>
   <energy>
    <i name="alphaZ">   1099.93726890 </i>
    <i name="ewald"> -31295.29103865 </i>
    <i name="hartreedc"> -13031.62274151 </i>
    <i name="XCdc">   1502.69335504 </i>
    <i name="pawpsdc">  43947.41658097 </i>
    <i name="pawaedc"> -43508.42483266 </i>
    <i name="eentropy">      0.00000000 </i>
    <i name="bandstr">  -4189.89305976 </i>
    <i name="atom">  45173.57650906 </i>
    <i name="e_fr_energy">   -301.60795860 </i>
    <i name="e_wo_entrp">   -301.60795860 </i>
    <i name="e_0_energy">   -301.60795860 </i>
   </energy>
  </scstep>
  <scstep>
   <time name="dav">   72.58   73.06</time>
   <time name="total">   73.38   73.85</time>
   <energy>
    <i name="e_fr_energy">   -302.23892668 </i>
    <i name="e_wo_entrp">   -302.23892668 </i>
    <i name="e_0_energy">   -302.23892668 </i>
   </energy>
  </scstep>
  <scstep>
   <time name="dav">   95.71   96.38</time>
   <time name="total">   96.50   97.18</time>
   <energy>
    <i name="e_fr_energy">   -302.02038126 </i>
    <i name="e_wo_entrp">   -302.02038126 </i>
    <i name="e_0_energy">   -302.02038126 </i>
   </energy>
  </scstep>
  <scstep>
   <time name="dav">   86.21   86.68</time>
   <time name="total">   87.00   87.48</time>
   <energy>
    <i name="e_fr_energy">   -301.96266169 </i>
    <i name="e_wo_entrp">   -301.96266169 </i>
    <i name="e_0_energy">   -301.96266169 </i>
   </energy>
  </scstep>
  <scstep>
   <time name="dav">   80.75   81.27</time>
   <time name="total">   81.54   82.06</time>
   <energy>
    <i name="e_fr_energy">   -301.96589787 </i>
    <i name="e_wo_entrp">   -301.96589787 </i>
    <i name="e_0_energy">   -301.96589787 </i>
   </energy>
  </scstep>
  <scstep>
   <time name="dav">   84.08   84.68</time>
   <time name="total">   84.87   85.47</time>
   <energy>
    <i name="e_fr_energy">   -301.96502951 </i>
    <i name="e_wo_entrp">   -301.96502951 </i>
    <i name="e_0_energy">   -301.96502951 </i>
   </energy>
  </scstep>
  <scstep>
   <time name="dav">   86.46   87.08</time>
   <time name="total">   87.25   87.87</time>
   <energy>
    <i name="e_fr_energy">   -301.96485993 </i>
    <i name="e_wo_entrp">   -301.96485993 </i>
    <i name="e_0_energy">   -301.96485993 </i>
   </energy>
  </scstep>
  <scstep>
   <time name="dav">   95.95   96.53</time>
   <time name="total">   96.75   97.32</time>
   <energy>
    <i name="e_fr_energy">   -301.96494745 </i>
    <i name="e_wo_entrp">   -301.96494745 </i>
    <i name="e_0_energy">   -301.96494745 </i>
   </energy>
  </scstep>
  <scstep>
   <time name="dav">   78.83   79.26</time>
   <time name="total">   79.62   80.06</time>
   <energy>
    <i name="e_fr_energy">   -301.96495805 </i>
    <i name="e_wo_entrp">   -301.96495805 </i>
    <i name="e_0_energy">   -301.96495805 </i>
   </energy>
  </scstep>
  <scstep>
   <time name="dav">   77.03   77.26</time>
   <time name="total">   77.82   78.06</time>
   <energy>
    <i name="e_fr_energy">   -301.96496367 </i>
    <i name="e_wo_entrp">   -301.96496367 </i>
    <i name="e_0_energy">   -301.96496367 </i>
   </energy>
  </scstep>
  <scstep>
   <time name="dav">   79.88   80.24</time>
   <time name="total">   80.67   81.04</time>
   <energy>
    <i name="e_fr_energy">   -301.96496208 </i>
    <i name="e_wo_entrp">   -301.96496208 </i>
    <i name="e_0_energy">   -301.96496208 </i>
   </energy>
  </scstep>
  <scstep>
   <time name="dav">   62.45   62.86</time>
   <time name="total">   62.52   62.94</time>
   <energy>
    <i name="alphaZ">   1099.93726890 </i>
    <i name="ewald"> -31295.29103865 </i>
    <i name="hartreedc"> -12859.26709388 </i>
    <i name="XCdc">   1494.67372978 </i>
    <i name="pawpsdc">  44324.53961185 </i>
    <i name="pawaedc"> -43888.41466975 </i>
    <i name="eentropy">      0.00000000 </i>
    <i name="bandstr">  -4351.71927930 </i>
    <i name="atom">  45173.57650906 </i>
    <i name="e_fr_energy">   -301.96496198 </i>
    <i name="e_wo_entrp">   -301.96496198 </i>
    <i name="e_0_energy">   -301.96496198 </i>
   </energy>
  </scstep>
  <structure>
   <crystal>
    <varray name="basis" >
     <v>      11.12352957       0.00213976      -0.00460836 </v>
     <v>       0.00183274       9.49380997       0.00125359 </v>
     <v>      -0.00460997       0.00146410      11.12654846 </v>
    </varray>
    <i name="volume">   1175.01527908 </i>
    <varray name="rec_basis" >
     <v>       0.08989954      -0.00001736       0.00003725 </v>
     <v>      -0.00002027       0.10533180      -0.00001387 </v>
     <v>       0.00003724      -0.00001187       0.08987515 </v>
    </varray>
   </crystal>
   <varray name="positions" >
    <v>       0.37166694       0.00052203       0.43555671 </v>
    <v>       0.12447145       0.99985605       0.18899102 </v>
    <v>       0.37337891       0.00083461       0.18720081 </v>
    <v>       0.87903583      -0.00015958       0.43759225 </v>
    <v>       0.62481707       0.99985422       0.18472504 </v>
    <v>       0.87589603      -0.00047428       0.18718227 </v>
    <v>       0.12481754       0.99951270       0.93729872 </v>
    <v>       0.37594995      -0.00015209       0.93826485 </v>
    <v>       0.12239532       0.99984510       0.68477134 </v>
    <v>       0.62585967       0.00018296       0.93509745 </v>
    <v>       0.87481386       0.00049579       0.93623033 </v>
    <v>       0.87368998       0.00082449       0.68658069 </v>
    <v>       0.62639935       0.99930185       0.44057691 </v>
    <v>       0.37702067      -0.00099195       0.68688649 </v>
    <v>       0.00007228       0.29512701       0.06295408 </v>
    <v>       0.24947069       0.70477082       0.06323762 </v>
    <v>       0.24837628       0.29013569       0.31315385 </v>
    <v>       0.49904936       0.69939385       0.31207011 </v>
    <v>       0.50007157       0.29538061       0.06260870 </v>
    <v>       0.75079965       0.70476217       0.06234650 </v>
    <v>       0.75141594       0.30053158       0.31234905 </v>
    <v>       0.00078452       0.70998908       0.31341043 </v>
    <v>       0.00054630       0.29011122       0.56212846 </v>
    <v>       0.24810645       0.70454864       0.56150081 </v>
    <v>       0.24880965       0.30041367       0.81329069 </v>
    <v>       0.50114638       0.70483256       0.81295968 </v>
    <v>       0.50069041       0.30007131       0.56354438 </v>
    <v>       0.75106715       0.70482873       0.56406059 </v>
    <v>       0.75015777       0.29010772       0.81242827 </v>
    <v>       0.99942543       0.70477294       0.81268279 </v>
    <v>       0.25036879       0.32771619       0.06205987 </v>
    <v>       0.00007071       0.67212080       0.06240258 </v>
    <v>       0.50092611       0.32725703       0.31337100 </v>
    <v>       0.25115582       0.67243622       0.31279948 </v>
    <v>       0.74969245       0.32770905       0.06367188 </v>
    <v>       0.50005561       0.67247960       0.06324083 </v>
    <v>       0.99907168       0.32771771       0.31236679 </v>
    <v>       0.74861816       0.67254017       0.31304362 </v>
    <v>       0.25137030       0.32728090       0.56389678 </v>
    <v>       0.00000676       0.67223528       0.56335889 </v>
    <v>       0.49893262       0.32718590       0.81242602 </v>
    <v>       0.25042196       0.67247706       0.81266399 </v>
    <v>       0.74881548       0.32737913       0.56177653 </v>
    <v>       0.49998261       0.67296223       0.56240606 </v>
    <v>       0.00079770       0.32791758       0.81330069 </v>
    <v>       0.74971090       0.67239223       0.81295862 </v>
    <v>       0.49989731       0.07754858       0.06280380 </v>
    <v>       0.25026832       0.92211752       0.06180359 </v>
    <v>       0.25363930       0.08183514       0.30993784 </v>
    <v>      -0.00310315       0.91789049       0.30965214 </v>
    <v>       0.99989300       0.07813042       0.06213995 </v>
    <v>       0.74951642       0.92212773       0.06312073 </v>
    <v>       0.74699976       0.07387863       0.31448639 </v>
    <v>       0.50283407       0.92641737       0.31485735 </v>
    <v>       0.49735783       0.07443351       0.55931811 </v>
    <v>       0.25531599       0.92268666       0.56752843 </v>
    <v>       0.25250634       0.07402282       0.81038776 </v>
    <v>       0.00076126       0.92186990       0.81277406 </v>
    <v>       0.99732112       0.08214719       0.56527994 </v>
    <v>       0.74944178       0.92199461       0.55698409 </v>
    <v>       0.75242016       0.08201557       0.81515629 </v>
    <v>       0.49473046       0.92224729       0.81268501 </v>
   </varray>
  </structure>
  <varray name="forces" >
   <v>      -0.50725561       0.02858479      -0.19260809 </v>
   <v>      -0.01737571       0.00544259       0.30385518 </v>
   <v>      -0.07061861       0.07110920       0.08194112 </v>
   <v>       0.49777274      -0.03219455       0.04410670 </v>
   <v>       0.02805233       0.00429172      -0.18175538 </v>
   <v>       0.08926115      -0.06371229       0.08474126 </v>
   <v>      -0.01603610      -0.03016674      -0.00018627 </v>
   <v>       0.02516795      -0.02957698       0.18158476 </v>
   <v>      -0.20797839      -0.00448268      -0.28946897 </v>
   <v>       0.00726105       0.03671528      -0.30453815 </v>
   <v>      -0.05927268       0.03132654      -0.06022032 </v>
   <v>      -0.21880632       0.06767462      -0.05888128 </v>
   <v>      -0.11230517       0.02151983       0.37476385 </v>
   <v>       0.45612876      -0.00233514       0.03383282 </v>
   <v>      -0.01429300       0.34895350      -0.02646955 </v>
   <v>      -0.06732180      -0.28684329      -0.03562068 </v>
   <v>      -0.13158479       0.99194072       0.08304703 </v>
   <v>       0.00899691       0.05996700      -0.05741563 </v>
   <v>      -0.01317229       0.22110364       0.02939848 </v>
   <v>       0.07637422      -0.28343482       0.03474407 </v>
   <v>       0.07415497      -0.00336121      -0.05924088 </v>
   <v>       0.07013273      -1.07989745       0.06875357 </v>
   <v>       0.10321106       1.10846612      -0.08651616 </v>
   <v>      -0.18341334      -0.13062500      -0.09312225 </v>
   <v>      -0.10261495       0.00963927       0.03491567 </v>
   <v>       0.08376068      -0.25716909      -0.01094165 </v>
   <v>       0.04258371       0.08154743       0.02806992 </v>
   <v>       0.03199621      -0.32264133       0.07943882 </v>
   <v>      -0.00046854       1.05854835      -0.07053527 </v>
   <v>       0.03188835      -0.34852906       0.03307773 </v>
   <v>       0.02909904       0.18981528      -0.06954473 </v>
   <v>       0.00614788      -0.20703846      -0.04525826 </v>
   <v>       0.09353301       0.22439831       0.05528518 </v>
   <v>       0.12420238      -0.09643235      -0.01472521 </v>
   <v>      -0.03906255       0.18979438       0.07160307 </v>
   <v>       0.00281546      -0.15988083       0.02279303 </v>
   <v>      -0.09746076       0.11394837      -0.06159040 </v>
   <v>      -0.13475296      -0.24780965       0.03572914 </v>
   <v>       0.14789920       0.13372340       0.11791241 </v>
   <v>      -0.02033129      -0.11707192       0.06417586 </v>
   <v>      -0.10636255       0.10284394      -0.04614100 </v>
   <v>       0.05721432      -0.24997105      -0.03855644 </v>
   <v>      -0.12570843       0.12865363      -0.12466360 </v>
   <v>      -0.00199502      -0.14876274      -0.03023583 </v>
   <v>       0.08296364       0.21925528       0.04059356 </v>
   <v>      -0.01637306      -0.09530650       0.01833744 </v>
   <v>       0.00879289      -0.21749417      -0.01048450 </v>
   <v>       0.00501004       0.26479125       0.00085861 </v>
   <v>       0.51255070      -1.14994916      -0.51883233 </v>
   <v>      -0.51592630       1.22976016      -0.51465424 </v>
   <v>       0.01313103      -0.32472083      -0.00131025 </v>
   <v>      -0.00922018       0.26026496      -0.01052749 </v>
   <v>      -0.24876406       0.30128188       0.26575246 </v>
   <v>       0.25618529      -0.33378739       0.28485616 </v>
   <v>      -0.42472787       0.28904075      -0.43721387 </v>
   <v>       0.67637711       0.02642741       0.64792353 </v>
   <v>       0.26805746       0.27596549      -0.25282732 </v>
   <v>      -0.00106721       0.30246626      -0.00229717 </v>
   <v>      -0.51647947      -1.24048207       0.51066421 </v>
   <v>       0.28476746       0.13648129      -0.64026102 </v>
   <v>       0.47006405      -1.20697368       0.49131009 </v>
   <v>      -0.68480477       0.13490777       0.22257848 </v>
  </varray>
  <varray name="stress" >
   <v>       4.77582121      -0.32259862       0.73765640 </v>
   <v>      -0.32259878       7.01562597      -0.27044871 </v>
   <v>       0.73765647      -0.27044850       4.53939838 </v>
  </varray>
  <energy>
   <i name="e_fr_energy">   -318.03035021 </i>
   <i name="e_wo_entrp">   -318.03035021 </i>
   <i name="e_0_energy">      0.00000000 </i>
  </energy>
  <time name="totalsc"> 1089.14 1095.51</time>
 </calculation>
 <calculation>
  <scstep>
   <time name="dav">   78.41   78.68</time>
   <time name="total">   79.19   79.47</time>
   <energy>
    <i name="alphaZ">   1100.01700761 </i>
    <i name="ewald"> -31295.98204008 </i>
    <i name="hartreedc"> -12859.63208246 </i>
    <i name="XCdc">   1494.71713856 </i>
    <i name="pawpsdc">  44324.58028034 </i>
    <i name="pawaedc"> -43888.46058241 </i>
    <i name="eentropy">      0.00000000 </i>
    <i name="bandstr">  -4350.78025851 </i>
    <i name="atom">  45173.57650906 </i>
    <i name="e_fr_energy">   -301.96402788 </i>
    <i name="e_wo_entrp">   -301.96402788 </i>
    <i name="e_0_energy">   -301.96402788 </i>
   </energy>
  </scstep>
  <scstep>
   <time name="dav">   74.31   74.68</time>
   <time name="total">   75.10   75.47</time>
   <energy>
    <i name="e_fr_energy">   -301.96402805 </i>
    <i name="e_wo_entrp">   -301.96402805 </i>
    <i name="e_0_energy">   -301.96402805 </i>
   </energy>
  </scstep>
  <scstep>
   <time name="dav">   91.37   91.85</time>
   <time name="total">   92.15   92.64</time>
   <energy>
    <i name="e_fr_energy">   -301.96402437 </i>
    <i name="e_wo_entrp">   -301.96402437 </i>
    <i name="e_0_energy">   -301.96402437 </i>
   </energy>
  </scstep>
  <scstep>
   <time name="dav">   64.37   64.81</time>
   <time name="total">   64.44   64.89</time>
   <energy>
    <i name="alphaZ">   1100.01700761 </i>
    <i name="ewald"> -31295.98204008 </i>
    <i name="hartreedc"> -12858.97191026 </i>
    <i name="XCdc">   1494.68672804 </i>
    <i name="pawpsdc">  44326.69716554 </i>
    <i name="pawaedc"> -43890.60114744 </i>
    <i name="eentropy">      0.00000000 </i>
    <i name="bandstr">  -4351.38633784 </i>
    <i name="atom">  45173.57650906 </i>
    <i name="e_fr_energy">   -301.96402537 </i>
    <i name="e_wo_entrp">   -301.96402537 </i>
    <i name="e_0_energy">   -301.96402537 </i>
   </energy>
  </scstep>
  <structure>
   <crystal>
    <varray name="basis" >
     <v>      11.12331385       0.00214815      -0.00462645 </v>
     <v>       0.00183993       9.49349292       0.00125851 </v>
     <v>      -0.00462807       0.00146985      11.12632928 </v>
    </varray>
    <i name="volume">   1174.93010385 </i>
    <varray name="rec_basis" >
     <v>       0.08990129      -0.00001743       0.00003740 </v>
     <v>      -0.00002035       0.10533531      -0.00001392 </v>
     <v>       0.00003738      -0.00001192       0.08987692 </v>
    </varray>
   </crystal>
   <varray name="positions" >
    <v>       0.37165225       0.00052343       0.43555152 </v>
    <v>       0.12447090       0.99985611       0.18899938 </v>
    <v>       0.37337406       0.00083724       0.18720211 </v>
    <v>       0.87905021      -0.00016089       0.43759510 </v>
    <v>       0.62481788       0.99985428       0.18471658 </v>
    <v>       0.87590110      -0.00047683       0.18718351 </v>
    <v>       0.12481529       0.99951141       0.93730041 </v>
    <v>       0.37595216      -0.00015337       0.93827035 </v>
    <v>       0.12238659       0.99984513       0.68476306 </v>
    <v>       0.62586151       0.00018432       0.93509046 </v>
    <v>       0.87481158       0.00049708       0.93622781 </v>
    <v>       0.87368635       0.00082708       0.68657955 </v>
    <v>       0.62640334       0.99929972       0.44059153 </v>
    <v>       0.37703018      -0.00099655       0.68688656 </v>
    <v>       0.00007205       0.29512676       0.06295465 </v>
    <v>       0.24946809       0.70477067       0.06323931 </v>
    <v>       0.24837039       0.29011568       0.31315517 </v>
    <v>       0.49904612       0.69937241       0.31206715 </v>
    <v>       0.50007134       0.29538137       0.06260790 </v>
    <v>       0.75080229       0.70476198       0.06234467 </v>
    <v>       0.75142204       0.30055271       0.31234719 </v>
    <v>       0.00078812       0.71000957       0.31341276 </v>
    <v>       0.00054794       0.29009112       0.56212578 </v>
    <v>       0.24809847       0.70454761       0.56149564 </v>
    <v>       0.24880547       0.30043434       0.81329254 </v>
    <v>       0.50115141       0.70483265       0.81296024 </v>
    <v>       0.50069262       0.30009062       0.56354728 </v>
    <v>       0.75107085       0.70482880       0.56406553 </v>
    <v>       0.75015891       0.29008761       0.81242673 </v>
    <v>       0.99942368       0.70477279       0.81268224 </v>
    <v>       0.25037005       0.32771994       0.06205671 </v>
    <v>       0.00007079       0.67211641       0.06240077 </v>
    <v>       0.50092996       0.32725896       0.31337302 </v>
    <v>       0.25116058       0.67243308       0.31279924 </v>
    <v>       0.74969104       0.32771276       0.06367509 </v>
    <v>       0.50005563       0.67247663       0.06324234 </v>
    <v>       0.99906821       0.32772147       0.31236484 </v>
    <v>       0.74861291       0.67253744       0.31304434 </v>
    <v>       0.25137551       0.32728292       0.56390087 </v>
    <v>       0.00000659       0.67223134       0.56336086 </v>
    <v>       0.49892861       0.32718754       0.81242430 </v>
    <v>       0.25042382       0.67247407       0.81266322 </v>
    <v>       0.74881061       0.32738154       0.56177226 </v>
    <v>       0.49998234       0.67296117       0.56240427 </v>
    <v>       0.00080104       0.32792212       0.81330243 </v>
    <v>       0.74970996       0.67238892       0.81295901 </v>
    <v>       0.49989742       0.07754687       0.06280516 </v>
    <v>       0.25026989       0.92211790       0.06180101 </v>
    <v>       0.25365314       0.08185040       0.30992790 </v>
    <v>      -0.00311591       0.91787415       0.30964106 </v>
    <v>       0.99989309       0.07813102       0.06213869 </v>
    <v>       0.74951502       0.92212816       0.06312333 </v>
    <v>       0.74698742       0.07386240       0.31449438 </v>
    <v>       0.50284473       0.92643477       0.31486681 </v>
    <v>       0.49734792       0.07441947       0.55930572 </v>
    <v>       0.25533748       0.92268929       0.56754843 </v>
    <v>       0.25251571       0.07400716       0.81037960 </v>
    <v>       0.00076376       0.92186931       0.81277530 </v>
    <v>       0.99731107       0.08216368       0.56529105 </v>
    <v>       0.74944008       0.92199451       0.55696249 </v>
    <v>       0.75242919       0.08203153       0.81516692 </v>
    <v>       0.49470917       0.92224820       0.81268588 </v>
   </varray>
  </structure>
  <varray name="forces" >
   <v>      -0.50580741       0.02840716      -0.19217544 </v>
   <v>      -0.01734335       0.00548174       0.30308657 </v>
   <v>      -0.06975859       0.07086175       0.08195074 </v>
   <v>       0.49638450      -0.03205135       0.04362494 </v>
   <v>       0.02795615       0.00431182      -0.18047095 </v>
   <v>       0.08839224      -0.06341540       0.08469230 </v>
   <v>      -0.01564793      -0.03003499      -0.00060292 </v>
   <v>       0.02462795      -0.02939176       0.18100394 </v>
   <v>      -0.20685582      -0.00453083      -0.28868813 </v>
   <v>       0.00688913       0.03661611      -0.30405844 </v>
   <v>      -0.05885879       0.03117160      -0.05981194 </v>
   <v>      -0.21874068       0.06739804      -0.05879778 </v>
   <v>      -0.11399481       0.02220020       0.37262397 </v>
   <v>       0.45583022      -0.00121884       0.03395377 </v>
   <v>      -0.01424821       0.35051157      -0.02684260 </v>
   <v>      -0.06673715      -0.28788714      -0.03629692 </v>
   <v>      -0.13094999       1.00178506       0.08316770 </v>
   <v>       0.00989186       0.06399161      -0.05689616 </v>
   <v>      -0.01316063       0.22170520       0.02980937 </v>
   <v>       0.07579012      -0.28446422       0.03545223 </v>
   <v>       0.07275852      -0.00702769      -0.05899948 </v>
   <v>       0.06976536      -1.09038185       0.06859209 </v>
   <v>       0.10336023       1.11907290      -0.08637166 </v>
   <v>      -0.18208246      -0.13090633      -0.09219664 </v>
   <v>      -0.10184808       0.00603981       0.03457191 </v>
   <v>       0.08287920      -0.25813140      -0.01105732 </v>
   <v>       0.04214629       0.07831822       0.02741493 </v>
   <v>       0.03108051      -0.32400597       0.07844478 </v>
   <v>      -0.00089765       1.06874630      -0.07057415 </v>
   <v>       0.03273107      -0.34992419       0.03346229 </v>
   <v>       0.02887586       0.18987435      -0.06906846 </v>
   <v>       0.00614232      -0.20698543      -0.04502431 </v>
   <v>       0.09301892       0.22493101       0.05506288 </v>
   <v>       0.12354843      -0.09619841      -0.01470412 </v>
   <v>      -0.03885645       0.18984794       0.07115026 </v>
   <v>       0.00281279      -0.15990539       0.02254775 </v>
   <v>      -0.09702408       0.11368822      -0.06136926 </v>
   <v>      -0.13407168      -0.24821856       0.03572496 </v>
   <v>       0.14725167       0.13386229       0.11743028 </v>
   <v>      -0.02038869      -0.11673570       0.06397236 </v>
   <v>      -0.10588525       0.10292657      -0.04594683 </v>
   <v>       0.05693151      -0.25034002      -0.03857380 </v>
   <v>      -0.12504245       0.12870666      -0.12420655 </v>
   <v>      -0.00196012      -0.14908255      -0.02997537 </v>
   <v>       0.08250374       0.21927031       0.04031732 </v>
   <v>      -0.01613583      -0.09502492       0.01830531 </v>
   <v>       0.00878417      -0.21772208      -0.01087318 </v>
   <v>       0.00459669       0.26559269       0.00147702 </v>
   <v>       0.51157057      -1.15940799      -0.51861339 </v>
   <v>      -0.51526221       1.23978077      -0.51424791 </v>
   <v>       0.01314284      -0.32610702      -0.00101839 </v>
   <v>      -0.00886887       0.26103863      -0.01117854 </v>
   <v>      -0.24681557       0.30507443       0.26489588 </v>
   <v>       0.25462537      -0.33783168       0.28369025 </v>
   <v>      -0.42404950       0.29259126      -0.43593997 </v>
   <v>       0.67371223       0.02563390       0.64556141 </v>
   <v>       0.26685123       0.27965735      -0.25192406 </v>
   <v>      -0.00160443       0.30389799      -0.00261789 </v>
   <v>      -0.51634873      -1.25054617       0.51028669 </v>
   <v>       0.28662413       0.13668959      -0.63727978 </v>
   <v>       0.46992379      -1.21677700       0.49080956 </v>
   <v>      -0.68215422       0.13457181       0.22331889 </v>
  </varray>
  <varray name="stress" >
   <v>       4.76815856      -0.32651031       0.74245641 </v>
   <v>      -0.32651057       7.03691458      -0.27367346 </v>
   <v>       0.74245650      -0.27367367       4.53034182 </v>
  </varray>
  <energy>
   <i name="e_fr_energy">   -318.03029681 </i>
   <i name="e_wo_entrp">   -318.03029681 </i>
   <i name="e_0_energy">      0.00000000 </i>
  </energy>
  <time name="totalsc">  424.30  426.34</time>
 </calculation>
 <calculation>
  <scstep>
   <time name="dav">   65.03   65.37</time>
   <time name="total">   65.81   66.16</time>
   <energy>
    <i name="alphaZ">   1100.74420203 </i>
    <i name="ewald"> -31421.48146060 </i>
    <i name="hartreedc"> -12752.27713866 </i>
    <i name="XCdc">   1494.37040436 </i>
    <i name="pawpsdc">  44326.55576454 </i>
    <i name="pawaedc"> -43890.45812991 </i>
    <i name="eentropy">      0.00000000 </i>
    <i name="bandstr">  -4332.46768576 </i>
    <i name="atom">  45173.57650906 </i>
    <i name="e_fr_energy">   -301.43753494 </i>
    <i name="e_wo_entrp">   -301.43753494 </i>
    <i name="e_0_energy">   -301.43753494 </i>
   </energy>
  </scstep>
  <scstep>
   <time name="dav">   76.26   76.68</time>
   <time name="total">   77.04   77.47</time>
   <energy>
    <i name="e_fr_energy">   -302.46403523 </i>
    <i name="e_wo_entrp">   -302.46403523 </i>
    <i name="e_0_energy">   -302.46403523 </i>
   </energy>
  </scstep>
  <scstep>
   <time name="dav">  103.76  104.35</time>
   <time name="total">  104.54  105.15</time>
   <energy>
    <i name="e_fr_energy">   -302.45837851 </i>
    <i name="e_wo_entrp">   -302.45837851 </i>
    <i name="e_0_energy">   -302.45837851 </i>
   </energy>
  </scstep>
  <scstep>
   <time name="dav">   76.92   77.33</time>
   <time name="total">   77.71   78.13</time>
   <energy>
    <i name="e_fr_energy">   -302.43905628 </i>
    <i name="e_wo_entrp">   -302.43905628 </i>
    <i name="e_0_energy">   -302.43905628 </i>
   </energy>
  </scstep>
  <scstep>
   <time name="dav">   80.70   81.28</time>
   <time name="total">   81.49   82.07</time>
   <energy>
    <i name="e_fr_energy">   -302.43032376 </i>
    <i name="e_wo_entrp">   -302.43032376 </i>
    <i name="e_0_energy">   -302.43032376 </i>
   </energy>
  </scstep>
  <scstep>
   <time name="dav">   78.83   79.59</time>
   <time name="total">   79.61   80.38</time>
   <energy>
    <i name="e_fr_energy">   -302.43100868 </i>
    <i name="e_wo_entrp">   -302.43100868 </i>
    <i name="e_0_energy">   -302.43100868 </i>
   </energy>
  </scstep>
  <scstep>
   <time name="dav">   88.13   88.80</time>
   <time name="total">   88.92   89.59</time>
   <energy>
    <i name="e_fr_energy">   -302.43097974 </i>
    <i name="e_wo_entrp">   -302.43097974 </i>
    <i name="e_0_energy">   -302.43097974 </i>
   </energy>
  </scstep>
  <scstep>
   <time name="dav">   87.78   88.37</time>
   <time name="total">   88.57   89.16</time>
   <energy>
    <i name="e_fr_energy">   -302.43094839 </i>
    <i name="e_wo_entrp">   -302.43094839 </i>
    <i name="e_0_energy">   -302.43094839 </i>
   </energy>
  </scstep>
  <scstep>
   <time name="dav">   77.77   78.39</time>
   <time name="total">   78.56   79.18</time>
   <energy>
    <i name="e_fr_energy">   -302.43093980 </i>
    <i name="e_wo_entrp">   -302.43093980 </i>
    <i name="e_0_energy">   -302.43093980 </i>
   </energy>
  </scstep>
  <scstep>
   <time name="dav">   76.70   77.09</time>
   <time name="total">   77.50   77.89</time>
   <energy>
    <i name="e_fr_energy">   -302.43094602 </i>
    <i name="e_wo_entrp">   -302.43094602 </i>
    <i name="e_0_energy">   -302.43094602 </i>
   </energy>
  </scstep>
  <scstep>
   <time name="dav">   71.30   71.48</time>
   <time name="total">   72.09   72.27</time>
   <energy>
    <i name="e_fr_energy">   -302.43094711 </i>
    <i name="e_wo_entrp">   -302.43094711 </i>
    <i name="e_0_energy">   -302.43094711 </i>
   </energy>
  </scstep>
  <scstep>
   <time name="dav">   63.65   63.82</time>
   <time name="total">   63.72   63.90</time>
   <energy>
    <i name="alphaZ">   1100.74420203 </i>
    <i name="ewald"> -31421.48146060 </i>
    <i name="hartreedc"> -12740.76174600 </i>
    <i name="XCdc">   1493.77110247 </i>
    <i name="pawpsdc">  44151.76712893 </i>
    <i name="pawaedc"> -43712.83330776 </i>
    <i name="eentropy">      0.00000000 </i>
    <i name="bandstr">  -4347.21337512 </i>
    <i name="atom">  45173.57650906 </i>
    <i name="e_fr_energy">   -302.43094699 </i>
    <i name="e_wo_entrp">   -302.43094699 </i>
    <i name="e_0_energy">   -302.43094699 </i>
   </energy>
  </scstep>
  <structure>
   <crystal>
    <varray name="basis" >
     <v>      11.12382422       0.00123235      -0.00240613 </v>
     <v>       0.00105937       9.48803556       0.00045167 </v>
     <v>      -0.00240790       0.00052352      11.12486195 </v>
    </varray>
    <i name="volume">   1174.15389933 </i>
    <varray name="rec_basis" >
     <v>       0.08989715      -0.00001004       0.00001946 </v>
     <v>      -0.00001168       0.10539590      -0.00000496 </v>
     <v>       0.00001944      -0.00000428       0.08988876 </v>
    </varray>
   </crystal>
   <varray name="positions" >
    <v>       0.36741934       0.00086237       0.43399730 </v>
    <v>       0.12432085       0.99989245       0.19147493 </v>
    <v>       0.37239789       0.00156263       0.18773822 </v>
    <v>       0.88319957      -0.00050587       0.43818132 </v>
    <v>       0.62505169       0.99988426       0.18276004 </v>
    <v>       0.87698864      -0.00115339       0.18772239 </v>
    <v>       0.12443435       0.99917902       0.93753223 </v>
    <v>       0.37636609      -0.00048001       0.93981913 </v>
    <v>       0.12027616       0.99982574       0.68236128 </v>
    <v>       0.62614734       0.00055912       0.93280136 </v>
    <v>       0.87424061       0.00083470       0.93561802 </v>
    <v>       0.87223331       0.00152956       0.68616544 </v>
    <v>       0.62646227       0.99911659       0.44423658 </v>
    <v>       0.38032766      -0.00164144       0.68704437 </v>
    <v>      -0.00002168       0.29687478       0.06291676 </v>
    <v>       0.24881802       0.70328520       0.06331566 </v>
    <v>       0.24698468       0.29243574       0.31369788 </v>
    <v>       0.49864028       0.69672449       0.31141012 </v>
    <v>       0.49998205       0.29661355       0.06262695 </v>
    <v>       0.75149781       0.70328890       0.06224538 </v>
    <v>       0.75258288       0.30344940       0.31183367 </v>
    <v>       0.00159194       0.70730739       0.31403407 </v>
    <v>       0.00122353       0.29299396       0.56137806 </v>
    <v>       0.24620080       0.70373898       0.56037860 </v>
    <v>       0.24778301       0.30333310       0.81369932 </v>
    <v>       0.50220964       0.70353203       0.81298927 </v>
    <v>       0.50118185       0.30316864       0.56406788 </v>
    <v>       0.75171913       0.70319100       0.56509059 </v>
    <v>       0.75031178       0.29273267       0.81190593 </v>
    <v>       0.99932286       0.70297287       0.81275254 </v>
    <v>       0.25066923       0.32920509       0.06131920 </v>
    <v>       0.00010886       0.67045484       0.06195534 </v>
    <v>       0.50186768       0.32866998       0.31389175 </v>
    <v>       0.25235661       0.67150779       0.31270293 </v>
    <v>       0.74932685       0.32919378       0.06442770 </v>
    <v>       0.50007123       0.67125138       0.06354868 </v>
    <v>       0.99816617       0.32882024       0.31182821 </v>
    <v>       0.74730274       0.67089661       0.31329946 </v>
    <v>       0.25273723       0.32824371       0.56497813 </v>
    <v>      -0.00010515       0.67109149       0.56391148 </v>
    <v>       0.49791214       0.32793962       0.81198698 </v>
    <v>       0.25092929       0.67078748       0.81238900 </v>
    <v>       0.74759187       0.32837097       0.56063990 </v>
    <v>       0.49993696       0.67205605       0.56202592 </v>
    <v>       0.00162277       0.32966704       0.81371862 </v>
    <v>       0.74950933       0.67144573       0.81309242 </v>
    <v>       0.49995076       0.07620272       0.06294624 </v>
    <v>       0.25050737       0.92352215       0.06144823 </v>
    <v>       0.25779253       0.07807022       0.30629973 </v>
    <v>      -0.00712338       0.92191355       0.30587126 </v>
    <v>       0.99996290       0.07655515       0.06195937 </v>
    <v>       0.74928299       0.92351485       0.06343606 </v>
    <v>       0.74420473       0.07316247       0.31675142 </v>
    <v>       0.50543017       0.92712993       0.31741043 </v>
    <v>       0.49413159       0.07396170       0.55569380 </v>
    <v>       0.26124327       0.92318346       0.57312509 </v>
    <v>       0.25497319       0.07325664       0.80815379 </v>
    <v>       0.00110196       0.92333232       0.81293574 </v>
    <v>       0.99367770       0.07809194       0.56904710 </v>
    <v>       0.75044739       0.92267639       0.55120156 </v>
    <v>       0.75572392       0.07805773       0.81877367 </v>
    <v>       0.48879471       0.92305854       0.81377549 </v>
   </varray>
  </structure>
  <varray name="forces" >
[...]
       <r>   11.6498    0.0000 </r>
       <r>   11.6855    0.0000 </r>
       <r>   11.6960    0.0000 </r>
       <r>   11.7033    0.0000 </r>
      </set>
     </set>
    </set>
   </array>
  </eigenvalues>
  <separator name="orbital magnetization" >
   <v name="MAGDIPOLOUT">      0.00000000      0.00000000      0.00000000</v>
  </separator>
  <dos>
   <i name="efermi">      4.58727953 </i>
   <total>
    <array>
     <dimension dim="1">gridpoints</dimension>
     <dimension dim="2">spin</dimension>
     <field>energy</field>
     <field>total</field>
     <field>integrated</field>
     <set>
      <set comment="spin 1">
       <r>   -42.2337     0.0000     0.0000 </r>
       <r>   -42.0420     0.0000     0.0000 </r>
       <r>   -41.8503     0.0000     0.0000 </r>
       <r>   -41.6586     0.0000     0.0000 </r>
       <r>   -41.4669     0.0000     0.0000 </r>
       <r>   -41.2752     0.0000     0.0000 </r>
       <r>   -41.0835     0.0000     0.0000 </r>
       <r>   -40.8918     0.0000     0.0000 </r>
       <r>   -40.7001     0.0000     0.0000 </r>
       <r>   -40.5085     0.0000     0.0000 </r>
       <r>   -40.3168     0.0000     0.0000 </r>
       <r>   -40.1251     0.0000     0.0000 </r>
       <r>   -39.9334     0.0000     0.0000 </r>
       <r>   -39.7417     0.0000     0.0000 </r>
       <r>   -39.5500     0.0000     4.0000 </r>
       <r>   -39.3583     0.0000    16.0000 </r>
       <r>   -39.1666     0.0000    24.0000 </r>
       <r>   -38.9749     0.0000    24.0000 </r>
       <r>   -38.7832     0.0000    24.0000 </r>
       <r>   -38.5915     0.0000    24.0000 </r>
       <r>   -38.3998     0.0000    24.0000 </r>
       <r>   -38.2081     0.0000    24.0000 </r>
       <r>   -38.0164     0.0000    24.0000 </r>
       <r>   -37.8248     0.0000    24.0000 </r>
       <r>   -37.6331     0.0000    24.0000 </r>
       <r>   -37.4414     0.0000    24.0000 </r>
       <r>   -37.2497     0.0000    24.0000 </r>
       <r>   -37.0580     0.0000    24.0000 </r>
       <r>   -36.8663     0.0000    24.0000 </r>
       <r>   -36.6746     0.0000    24.0000 </r>
       <r>   -36.4829     0.0000    24.0000 </r>
       <r>   -36.2912     0.0000    24.0000 </r>
       <r>   -36.0995     0.0000    24.0000 </r>
       <r>   -35.9078     0.0000    24.0000 </r>
       <r>   -35.7161     0.0000    24.0000 </r>
       <r>   -35.5244     0.0000    24.0000 </r>
       <r>   -35.3327     0.0000    24.0000 </r>
       <r>   -35.1411     0.0000    24.0000 </r>
       <r>   -34.9494     0.0000    24.0000 </r>
       <r>   -34.7577     0.0000    24.0000 </r>
       <r>   -34.5660     0.0000    24.0000 </r>
       <r>   -34.3743     0.0000    24.0000 </r>
       <r>   -34.1826     0.0000    24.0000 </r>
       <r>   -33.9909     0.0000    24.0000 </r>
       <r>   -33.7992     0.0000    24.0000 </r>
       <r>   -33.6075     0.0000    24.0000 </r>
       <r>   -33.4158     0.0000    24.0000 </r>
       <r>   -33.2241     0.0000    24.0000 </r>
       <r>   -33.0324     0.0000    24.0000 </r>
       <r>   -32.8407     0.0000    24.0000 </r>
       <r>   -32.6491     0.0000    24.0000 </r>
       <r>   -32.4574     0.0000    24.0000 </r>
       <r>   -32.2657     0.0000    24.0000 </r>
       <r>   -32.0740     0.0000    24.0000 </r>
       <r>   -31.8823     0.0000    24.0000 </r>
       <r>   -31.6906     0.0000    24.0000 </r>
       <r>   -31.4989     0.0000    24.0000 </r>
       <r>   -31.3072     0.0000    24.0000 </r>
       <r>   -31.1155     0.0000    24.0000 </r>
       <r>   -30.9238     0.0000    24.0000 </r>
       <r>   -30.7321     0.0000    24.0000 </r>
       <r>   -30.5404     0.0000    24.0000 </r>
       <r>   -30.3487     0.0000    24.0000 </r>
       <r>   -30.1570     0.0000    24.0000 </r>
       <r>   -29.9654     0.0000    24.0000 </r>
       <r>   -29.7737     0.0000    24.0000 </r>
       <r>   -29.5820     0.0000    24.0000 </r>
       <r>   -29.3903     0.0000    24.0000 </r>
       <r>   -29.1986     0.0000    24.0000 </r>
       <r>   -29.0069     0.0000    24.0000 </r>
       <r>   -28.8152     0.0000    24.0000 </r>
       <r>   -28.6235     0.0000    24.0000 </r>
       <r>   -28.4318     0.0000    24.0000 </r>
       <r>   -28.2401     0.0000    24.0000 </r>
       <r>   -28.0484     0.0000    24.0000 </r>
       <r>   -27.8567     0.0000    24.0000 </r>
       <r>   -27.6650     0.0000    24.0000 </r>
       <r>   -27.4733     0.0000    24.0000 </r>
       <r>   -27.2817     0.0000    24.0000 </r>
       <r>   -27.0900     0.0000    24.0000 </r>
       <r>   -26.8983     0.0000    24.0000 </r>
       <r>   -26.7066     0.0000    24.0000 </r>
       <r>   -26.5149     0.0000    24.0000 </r>
       <r>   -26.3232     0.0000    24.0000 </r>
       <r>   -26.1315     0.0000    24.0000 </r>
       <r>   -25.9398     0.0000    24.0000 </r>
       <r>   -25.7481     0.0000    24.0000 </r>
       <r>   -25.5564     0.0000    24.0000 </r>
       <r>   -25.3647     0.0000    24.0000 </r>
       <r>   -25.1730     0.0000    24.0000 </r>
       <r>   -24.9813     0.0000    24.0000 </r>
       <r>   -24.7896     0.0000    24.0000 </r>
       <r>   -24.5980     0.0000    24.0000 </r>
       <r>   -24.4063     0.0000    24.0000 </r>
       <r>   -24.2146     0.0000    24.0000 </r>
       <r>   -24.0229     0.0000    24.0000 </r>
       <r>   -23.8312     0.0000    24.0000 </r>
       <r>   -23.6395     0.0000    24.0000 </r>
       <r>   -23.4478     0.0000    24.0000 </r>
       <r>   -23.2561     0.0000    24.0000 </r>
       <r>   -23.0644     0.0000    24.0000 </r>
       <r>   -22.8727     0.0000    24.0000 </r>
       <r>   -22.6810     0.0000    24.0000 </r>
       <r>   -22.4893     0.0000    24.0000 </r>
       <r>   -22.2976     0.0000    24.0000 </r>
       <r>   -22.1059     0.0000    24.0000 </r>
       <r>   -21.9143     0.0000    24.0000 </r>
       <r>   -21.7226     0.0000    24.0000 </r>
       <r>   -21.5309     0.0000    24.0000 </r>
       <r>   -21.3392     0.0000    24.0000 </r>
       <r>   -21.1475     0.0000    24.0000 </r>
       <r>   -20.9558     0.0000    24.0000 </r>
       <r>   -20.7641     0.0000    24.0000 </r>
       <r>   -20.5724     0.0000    24.0000 </r>
       <r>   -20.3807     0.0000    24.0000 </r>
       <r>   -20.1890     0.0000    24.0000 </r>
       <r>   -19.9973     0.0000    24.0000 </r>
       <r>   -19.8056     0.0000    24.0000 </r>
       <r>   -19.6139     0.0000    24.0000 </r>
       <r>   -19.4222     0.0000    24.0000 </r>
       <r>   -19.2306     0.0000    24.0000 </r>
       <r>   -19.0389     0.0000    24.0000 </r>
       <r>   -18.8472     0.0000    24.0000 </r>
       <r>   -18.6555     0.0000    24.0000 </r>
       <r>   -18.4638     0.0000    30.0000 </r>
       <r>   -18.2721     0.0000   132.0000 </r>
       <r>   -18.0804     0.0000   184.0000 </r>
       <r>   -17.8887     0.0000   184.0000 </r>
       <r>   -17.6970     0.0000   184.0000 </r>
       <r>   -17.5053     0.0000   184.0000 </r>
       <r>   -17.3136     0.0000   184.0000 </r>
       <r>   -17.1219     0.0000   184.0000 </r>
       <r>   -16.9302     0.0000   184.0000 </r>
       <r>   -16.7385     0.0000   184.0000 </r>
       <r>   -16.5469     0.0000   184.0000 </r>
       <r>   -16.3552     0.0000   184.0000 </r>
       <r>   -16.1635     0.0000   184.0000 </r>
       <r>   -15.9718     0.0000   184.0000 </r>
       <r>   -15.7801     0.0000   184.0000 </r>
       <r>   -15.5884     0.0000   184.0000 </r>
       <r>   -15.3967     0.0000   184.0000 </r>
       <r>   -15.2050     0.0000   184.0000 </r>
       <r>   -15.0133     0.0000   184.0000 </r>
       <r>   -14.8216     0.0000   184.0000 </r>
       <r>   -14.6299     0.0000   184.0000 </r>
       <r>   -14.4382     0.0000   184.0000 </r>
       <r>   -14.2465     0.0000   184.0000 </r>
       <r>   -14.0548     0.0000   184.0000 </r>
       <r>   -13.8632     0.0000   184.0000 </r>
       <r>   -13.6715     0.0000   184.0000 </r>
       <r>   -13.4798     0.0000   184.0000 </r>
       <r>   -13.2881     0.0000   184.0000 </r>
       <r>   -13.0964     0.0000   184.0000 </r>
       <r>   -12.9047     0.0000   184.0000 </r>
       <r>   -12.7130     0.0000   186.0000 </r>
       <r>   -12.5213     0.0000   194.0000 </r>
       <r>   -12.3296     0.0000   204.0000 </r>
       <r>   -12.1379     0.0000   216.0000 </r>
       <r>   -11.9462     0.0000   216.0000 </r>
       <r>   -11.7545     0.0000   216.0000 </r>
       <r>   -11.5628     0.0000   216.0000 </r>
       <r>   -11.3711     0.0000   216.0000 </r>
       <r>   -11.1795     0.0000   216.0000 </r>
       <r>   -10.9878     0.0000   216.0000 </r>
       <r>   -10.7961     0.0000   216.0000 </r>
       <r>   -10.6044     0.0000   216.0000 </r>
       <r>   -10.4127     0.0000   216.0000 </r>
       <r>   -10.2210     0.0000   216.0000 </r>
       <r>   -10.0293     0.0000   216.0000 </r>
       <r>    -9.8376     0.0000   216.0000 </r>
       <r>    -9.6459     0.0000   216.0000 </r>
       <r>    -9.4542     0.0000   216.0000 </r>
       <r>    -9.2625     0.0050   216.0000 </r>
       <r>    -9.0708    11.0671   217.1070 </r>
       <r>    -8.8791     9.5308   219.2549 </r>
       <r>    -8.6874     7.8122   220.3167 </r>
       <r>    -8.4958    18.9224   223.6305 </r>
       <r>    -8.3041    41.0316   226.3339 </r>
       <r>    -8.1124    12.1605   231.2214 </r>
       <r>    -7.9207    17.7753   232.3824 </r>
       <r>    -7.7290    29.6294   239.1774 </r>
       <r>    -7.5373     0.0000   244.0000 </r>
       <r>    -7.3456    22.4718   246.3936 </r>
       <r>    -7.1539     0.0000   248.0000 </r>
       <r>    -6.9622     0.0000   248.0000 </r>
       <r>    -6.7705     0.0000   248.0000 </r>
       <r>    -6.5788     0.0000   248.0000 </r>
       <r>    -6.3871     0.0000   248.0000 </r>
       <r>    -6.1954     0.0000   248.0000 </r>
       <r>    -6.0037    11.9809   248.5958 </r>
       <r>    -5.8121    33.8733   253.5529 </r>
       <r>    -5.6204     8.5674   256.2535 </r>
       <r>    -5.4287    30.0799   260.8993 </r>
       <r>    -5.2370    21.7297   265.9703 </r>
       <r>    -5.0453    13.4726   270.0026 </r>
       <r>    -4.8536     3.7213   271.9424 </r>
       <r>    -4.6619     6.7322   272.4853 </r>
       <r>    -4.4702    13.2093   274.4983 </r>
       <r>    -4.2785     3.0280   276.3170 </r>
       <r>    -4.0868     5.8345   277.1665 </r>
       <r>    -3.8951     9.7206   278.6547 </r>
       <r>    -3.7034     2.2789   279.5986 </r>
       <r>    -3.5117     1.0325   279.9160 </r>
       <r>    -3.3200     0.0032   280.0000 </r>
       <r>    -3.1284     0.0000   280.0000 </r>
       <r>    -2.9367     0.0000   280.0000 </r>
       <r>    -2.7450     0.0000   280.0000 </r>
       <r>    -2.5533     0.0000   280.0000 </r>
       <r>    -2.3616     0.0000   280.0000 </r>
       <r>    -2.1699     0.0000   280.0000 </r>
       <r>    -1.9782     0.0000   280.0000 </r>
       <r>    -1.7865     0.0000   280.0000 </r>
       <r>    -1.5948     0.0000   280.0000 </r>
       <r>    -1.4031     0.0000   280.0000 </r>
       <r>    -1.2114     0.0044   280.0000 </r>
       <r>    -1.0197     7.9385   280.6487 </r>
       <r>    -0.8280     5.4341   282.0651 </r>
       <r>    -0.6363    10.5639   283.3700 </r>
       <r>    -0.4447    10.2039   285.6930 </r>
       <r>    -0.2530     9.9435   287.3246 </r>
       <r>    -0.0613    25.5935   290.9018 </r>
       <r>     0.1304    29.1571   295.5649 </r>
       <r>     0.3221    44.2260   303.7291 </r>
       <r>     0.5138    41.5003   310.5321 </r>
       <r>     0.7055    31.9622   318.9786 </r>
       <r>     0.8972    49.4066   324.7752 </r>
       <r>     1.0889    30.8852   331.0035 </r>
       <r>     1.2806    40.8322   337.5392 </r>
       <r>     1.4723    43.2836   346.9314 </r>
       <r>     1.6640    34.0242   354.9459 </r>
       <r>     1.8557    49.9079   363.7558 </r>
       <r>     2.0473    64.8326   374.3704 </r>
       <r>     2.2390    41.0562   385.8686 </r>
       <r>     2.4307    33.6189   393.5568 </r>
       <r>     2.6224    51.0968   400.9556 </r>
       <r>     2.8141    72.3116   414.9492 </r>
       <r>     3.0058    46.6083   428.0368 </r>
       <r>     3.1975    87.7940   443.3011 </r>
       <r>     3.3892    42.2112   452.8866 </r>
       <r>     3.5809    21.9226   457.7256 </r>
       <r>     3.7726    35.7818   464.4108 </r>
       <r>     3.9643    13.3954   468.4876 </r>
       <r>     4.1560     8.4818   470.5843 </r>
       <r>     4.3477     3.5800   471.7402 </r>
       <r>     4.5394     0.0004   472.0000 </r>
       <r>     4.7310     0.0000   472.0000 </r>
       <r>     4.9227     0.0000   472.0000 </r>
       <r>     5.1144     0.0000   472.0000 </r>
       <r>     5.3061     0.0000   472.0000 </r>
       <r>     5.4978     0.9359   472.0236 </r>
       <r>     5.6895     6.3973   472.7203 </r>
       <r>     5.8812    10.6268   474.4459 </r>
       <r>     6.0729    29.0757   476.6042 </r>
       <r>     6.2646    14.2625   480.8230 </r>
       <r>     6.4563    12.6851   483.3673 </r>
       <r>     6.6480    12.6394   485.7534 </r>
       <r>     6.8397    14.4269   488.3477 </r>
       <r>     7.0314    16.3674   491.2900 </r>
       <r>     7.2231    19.1917   494.6651 </r>
       <r>     7.4147    25.6497   498.8477 </r>
       <r>     7.6064    33.1977   504.5008 </r>
       <r>     7.7981    31.8224   512.4847 </r>
       <r>     7.9898    30.6115   517.6314 </r>
       <r>     8.1815    29.2475   523.2466 </r>
       <r>     8.3732    41.8050   530.3406 </r>
       <r>     8.5649    26.4979   537.5408 </r>
       <r>     8.7566    16.0848   541.1788 </r>
       <r>     8.9483    31.5308   545.3605 </r>
       <r>     9.1400    37.0776   552.5130 </r>
       <r>     9.3317    28.4016   559.8131 </r>
       <r>     9.5234    27.1958   565.2492 </r>
       <r>     9.7151     2.5417   567.9472 </r>
       <r>     9.9068     0.0000   568.0000 </r>
       <r>    10.0984    15.9486   569.6828 </r>
       <r>    10.2901     9.9195   571.3991 </r>
       <r>    10.4818    19.7276   573.6863 </r>
       <r>    10.6735    17.3720   577.5631 </r>
       <r>    10.8652    37.0831   582.4812 </r>
       <r>    11.0569    38.2251   589.1819 </r>
       <r>    11.2486    24.5561   596.5020 </r>
       <r>    11.4403    23.6986   600.7892 </r>
       <r>    11.6320    20.0076   605.6323 </r>
       <r>    11.8237    22.4949   609.8200 </r>
       <r>    12.0154    12.9312   613.1462 </r>
       <r>    12.2071     6.6718   615.0014 </r>
       <r>    12.3988     2.2096   615.8192 </r>
       <r>    12.5905     0.1269   615.9971 </r>
       <r>    12.7821     0.0000   616.0000 </r>
       <r>    12.9738     0.0000   616.0000 </r>
       <r>    13.1655     0.0000   616.0000 </r>
       <r>    13.3572     0.0000   616.0000 </r>
       <r>    13.5489     0.0000   616.0000 </r>
       <r>    13.7406     0.0000   616.0000 </r>
       <r>    13.9323     0.0000   616.0000 </r>
       <r>    14.1240     0.0000   616.0000 </r>
       <r>    14.3157     0.0000   616.0000 </r>
       <r>    14.5074     0.0000   616.0000 </r>
       <r>    14.6991     0.0000   616.0000 </r>
       <r>    14.8908     0.0000   616.0000 </r>
       <r>    15.0825     0.0000   616.0000 </r>
       <r>    15.2742     0.0000   616.0000 </r>
      </set>
     </set>
    </array>
   </total>
  </dos>
 </calculation>
 <structure name="finalpos" >
  <crystal>
   <varray name="basis" >
    <v>      11.12875545      -0.02237342       0.01770826 </v>
    <v>      -0.01818103       9.44332246      -0.01161851 </v>
    <v>       0.01763771      -0.01442318      11.14107241 </v>
   </varray>
   <i name="volume">   1170.83299389 </i>
   <varray name="rec_basis" >
    <v>       0.08985788       0.00017283      -0.00014203 </v>
    <v>       0.00021268       0.10589551       0.00013676 </v>
    <v>      -0.00014260       0.00011016       0.08975833 </v>
   </varray>
  </crystal>
  <varray name="positions" >
   <v>       0.35227388      -0.00123005       0.43048467 </v>
   <v>       0.12143166       0.00175664       0.19731875 </v>
   <v>       0.37558147       0.00152787       0.18304406 </v>
   <v>       0.89835449      -0.00883391       0.44317819 </v>
   <v>       0.62614316       0.00123576       0.18516186 </v>
   <v>       0.87162573      -0.00084241       0.18546226 </v>
   <v>       0.12493952       0.99773366       0.93688505 </v>
   <v>       0.37272927      -0.00169251       0.94295386 </v>
   <v>       0.11735130       0.99522217       0.67980329 </v>
   <v>       0.62686596      -0.00192829       0.92459411 </v>
   <v>       0.88021051      -0.00006601       0.93824478 </v>
   <v>       0.85502353       0.00369999       0.68525858 </v>
   <v>       0.62269967       0.00294216       0.44465922 </v>
   <v>       0.38934055       0.00455501       0.68974602 </v>
   <v>       0.00004385       0.29930704       0.06271530 </v>
   <v>       0.24947087       0.70024348       0.06217977 </v>
   <v>       0.24884784       0.29745010       0.30969440 </v>
   <v>       0.50052049       0.69297140       0.31276426 </v>
   <v>       0.49993775       0.29844993       0.06294751 </v>
   <v>       0.75156122       0.70077050       0.06288649 </v>
   <v>       0.74883428       0.30950581       0.31203238 </v>
   <v>      -0.00095319       0.70307371       0.31053877 </v>
   <v>      -0.00188727       0.29431362       0.56484068 </v>
   <v>       0.25059489       0.69637183       0.56408026 </v>
   <v>       0.25097915       0.30784851       0.81227893 </v>
   <v>       0.50058807       0.69475758       0.81559476 </v>
   <v>       0.49866631       0.31467069       0.56084472 </v>
   <v>       0.75302912       0.69561406       0.56100005 </v>
   <v>       0.75378893       0.29622363       0.81521534 </v>
   <v>       0.00182068       0.69858932       0.81404161 </v>
   <v>       0.25035467       0.34787992       0.06242604 </v>
   <v>       0.00095110       0.65025566       0.06311626 </v>
   <v>       0.49869912       0.35324409       0.31225493 </v>
   <v>       0.25169982       0.67085961       0.31270410 </v>
   <v>       0.74888922       0.34730148       0.06181871 </v>
   <v>       0.50091668       0.65513718       0.06292245 </v>
   <v>      -0.00127997       0.33149663       0.31197001 </v>
   <v>       0.74985393       0.64702097       0.31351679 </v>
   <v>       0.25064874       0.34175268       0.56305843 </v>
   <v>       0.00081961       0.66439695       0.56289051 </v>
   <v>       0.49966497       0.33661062       0.81110200 </v>
   <v>       0.25264545       0.64622877       0.81211772 </v>
   <v>       0.74844133       0.34132374       0.56129839 </v>
   <v>       0.50140249       0.65667402       0.56313659 </v>
   <v>       0.00017661       0.34976526       0.81192770 </v>
   <v>       0.75111452       0.66867962       0.81342977 </v>
   <v>       0.49983380       0.07772042       0.06472084 </v>
   <v>       0.24973873       0.92058543       0.05755952 </v>
   <v>       0.26286777       0.08160439       0.29600164 </v>
   <v>      -0.01648249       0.91867425       0.29821634 </v>
   <v>       0.00101476       0.07917214       0.06080786 </v>
   <v>       0.75009955       0.92106824       0.06645948 </v>
   <v>       0.73232995       0.08682546       0.31517878 </v>
   <v>       0.50839088       0.91706854       0.32061881 </v>
   <v>       0.48933090       0.08742308       0.55049367 </v>
   <v>       0.26878304       0.91520860       0.58115624 </v>
   <v>       0.26169272       0.08400020       0.80684963 </v>
   <v>       0.00914340       0.91789509       0.81823005 </v>
   <v>       0.98455651       0.07899219       0.58117471 </v>
   <v>       0.75502918       0.91564687       0.54080034 </v>
   <v>       0.76340316       0.08008480       0.82653978 </v>
   <v>       0.48485617       0.91556184       0.82139194 </v>
  </varray>
 </structure>
</modeling>
