<?xml version="1.0" encoding="ISO-8859-1"?>
<modeling>
 <generator>
  <i name="program" type="string">vasp </i>
  <i name="version" type="string">5.4.4.18Apr17-6-g9f103f2a35  </i>
  <i name="subversion" type="string">(build Jul 31 2017 11:33:29) complex            parallel </i>
  <i name="platform" type="string">LinuxIFC </i>
  <i name="date" type="string">2021 09 22 </i>
  <i name="time" type="string">19:42:10 </i>
 </generator>
 <incar>
  <i type="string" name="SYSTEM"> La2O2S</i>
  <i type="string" name="PREC">normal</i>
  <i type="int" name="NELMIN">     4</i>
  <i type="int" name="IBRION">     2</i>
  <i type="int" name="NFREE">    10</i>
  <i name="EDIFF">      0.00000100</i>
  <i name="EDIFFG">     -0.01000000</i>
  <i type="int" name="NSW">   200</i>
  <i type="int" name="ISIF">     3</i>
  <i name="ENCUT">    600.00000000</i>
  <i name="ENAUG">    900.00000000</i>
  <i type="int" name="ISMEAR">    -5</i>
  <i type="logical" name="LWAVE"> F  </i>
  <i type="logical" name="LCHARG"> F  </i>
  <v type="int" name="KPOINT_BSE">    -1     0     0     0</v>
 </incar>
 <structure name="primitive_cell" >
  <crystal>
   <varray name="basis" >
    <v>      11.17850000       0.00000000       0.00000000 </v>
    <v>       0.00000000       9.57460000       0.00000000 </v>
    <v>       0.00000000       0.00000000      11.18240000 </v>
   </varray>
   <i name="volume">   1196.84853820 </i>
   <varray name="rec_basis" >
    <v>       0.08945744       0.00000000       0.00000000 </v>
    <v>       0.00000000       0.10444301       0.00000000 </v>
    <v>       0.00000000       0.00000000       0.08942624 </v>
   </varray>
  </crystal>
  <varray name="positions" >
   <v>       0.37539000       0.00017000       0.43687000 </v>
   <v>      -0.49987000      -0.07798000       0.31246000 </v>
   <v>       0.25013000       0.07798000       0.31246000 </v>
   <v>       0.49987000       0.07798000      -0.43754000 </v>
   <v>       0.24987000      -0.07798000      -0.43754000 </v>
   <v>      -0.37461000      -0.00016000       0.43687000 </v>
   <v>       0.37461000       0.00017000      -0.31313000 </v>
   <v>       0.49987000      -0.29519000       0.31282000 </v>
   <v>       0.24987000       0.29519000       0.31282000 </v>
   <v>      -0.49987000       0.29519000      -0.43719000 </v>
   <v>       0.25013000      -0.29519000      -0.43719000 </v>
   <v>       0.49995000       0.32677000       0.31286000 </v>
   <v>       0.24995000      -0.32677000       0.31286000 </v>
   <v>      -0.49995000      -0.32677000      -0.43714000 </v>
   <v>       0.25005000       0.32677000      -0.43714000 </v>
   <v>      -0.37539000      -0.00016000       0.18687000 </v>
   <v>      -0.37539000      -0.00016000      -0.31313000 </v>
   <v>       0.12461000      -0.00016000       0.18687000 </v>
   <v>       0.12461000      -0.00016000      -0.31313000 </v>
   <v>       0.49987000       0.07798000       0.06246000 </v>
   <v>      -0.24987000       0.07798000       0.31246000 </v>
   <v>      -0.25013000      -0.07798000      -0.43754000 </v>
   <v>       0.24987000      -0.07798000       0.06246000 </v>
   <v>       0.00013000      -0.07798000       0.31246000 </v>
   <v>      -0.49987000      -0.07798000      -0.18754000 </v>
   <v>      -0.00013000       0.07798000      -0.43754000 </v>
   <v>       0.25013000       0.07798000      -0.18754000 </v>
   <v>      -0.49987000       0.29519000       0.06281000 </v>
   <v>      -0.25013000       0.29519000       0.31282000 </v>
   <v>       0.25013000      -0.29519000       0.06281000 </v>
   <v>      -0.24987000      -0.29519000      -0.43719000 </v>
   <v>      -0.00013000      -0.29519000       0.31282000 </v>
   <v>       0.00013000       0.29519000      -0.43719000 </v>
   <v>       0.49987000      -0.29519000      -0.18718000 </v>
   <v>       0.24987000       0.29519000      -0.18718000 </v>
   <v>      -0.49995000      -0.32677000       0.06286000 </v>
   <v>       0.25005000       0.32677000       0.06286000 </v>
   <v>      -0.25005000      -0.32677000       0.31286000 </v>
   <v>      -0.24995000       0.32677000      -0.43714000 </v>
   <v>      -0.00005000       0.32677000       0.31286000 </v>
   <v>       0.00005000      -0.32677000      -0.43714000 </v>
   <v>       0.49995000       0.32677000      -0.18714000 </v>
   <v>       0.24995000      -0.32677000      -0.18714000 </v>
   <v>      -0.12461000       0.00017000       0.43687000 </v>
   <v>       0.37539000       0.00017000      -0.06313000 </v>
   <v>      -0.25013000      -0.07798000       0.06246000 </v>
   <v>      -0.00013000       0.07798000       0.06246000 </v>
   <v>      -0.24987000       0.07798000      -0.18754000 </v>
   <v>       0.00013000      -0.07798000      -0.18754000 </v>
   <v>      -0.12539000       0.00017000       0.18687000 </v>
   <v>       0.12539000      -0.00016000      -0.06313000 </v>
   <v>      -0.37461000      -0.00016000      -0.06313000 </v>
   <v>      -0.24987000      -0.29519000       0.06281000 </v>
   <v>       0.00013000       0.29519000       0.06281000 </v>
   <v>      -0.25013000       0.29519000      -0.18718000 </v>
   <v>      -0.00013000      -0.29519000      -0.18718000 </v>
   <v>      -0.24995000       0.32677000       0.06286000 </v>
   <v>       0.00005000      -0.32677000       0.06286000 </v>
   <v>      -0.25005000      -0.32677000      -0.18714000 </v>
   <v>      -0.00005000       0.32677000      -0.18714000 </v>
   <v>      -0.12461000       0.00017000      -0.06313000 </v>
  </varray>
 </structure>
 <varray name="primitive_index" >
  <v type="int" >        1 </v>
  <v type="int" >       53 </v>
  <v type="int" >       48 </v>
  <v type="int" >       54 </v>
  <v type="int" >       55 </v>
  <v type="int" >        3 </v>
  <v type="int" >        8 </v>
  <v type="int" >       17 </v>
  <v type="int" >       16 </v>
  <v type="int" >       26 </v>
  <v type="int" >       23 </v>
  <v type="int" >       32 </v>
  <v type="int" >       33 </v>
  <v type="int" >       43 </v>
  <v type="int" >       38 </v>
  <v type="int" >        4 </v>
  <v type="int" >       13 </v>
  <v type="int" >        2 </v>
  <v type="int" >        7 </v>
  <v type="int" >       46 </v>
  <v type="int" >       52 </v>
  <v type="int" >       59 </v>
  <v type="int" >       47 </v>
  <v type="int" >       49 </v>
  <v type="int" >       61 </v>
  <v type="int" >       58 </v>
  <v type="int" >       56 </v>
  <v type="int" >       18 </v>
  <v type="int" >       20 </v>
  <v type="int" >       15 </v>
  <v type="int" >       27 </v>
  <v type="int" >       21 </v>
  <v type="int" >       22 </v>
  <v type="int" >       25 </v>
  <v type="int" >       24 </v>
  <v type="int" >       35 </v>
  <v type="int" >       30 </v>
  <v type="int" >       37 </v>
  <v type="int" >       42 </v>
  <v type="int" >       36 </v>
  <v type="int" >       39 </v>
  <v type="int" >       40 </v>
  <v type="int" >       41 </v>
  <v type="int" >       11 </v>
  <v type="int" >        6 </v>
  <v type="int" >       51 </v>
  <v type="int" >       50 </v>
  <v type="int" >       60 </v>
  <v type="int" >       57 </v>
  <v type="int" >       12 </v>
  <v type="int" >        5 </v>
  <v type="int" >        9 </v>
  <v type="int" >       19 </v>
  <v type="int" >       14 </v>
  <v type="int" >       28 </v>
  <v type="int" >       29 </v>
  <v type="int" >       34 </v>
  <v type="int" >       31 </v>
  <v type="int" >       45 </v>
  <v type="int" >       44 </v>
  <v type="int" >       10 </v>
 </varray>
 <kpoints>
  <generation param="Gamma">
   <v type="int" name="divisions">       2        2        2 </v>
   <v name="usershift">      0.00000000       0.00000000       0.00000000 </v>
   <v name="genvec1">      0.50000000       0.00000000       0.00000000 </v>
   <v name="genvec2">      0.00000000       0.50000000       0.00000000 </v>
   <v name="genvec3">      0.00000000       0.00000000       0.50000000 </v>
   <v name="shift">      0.00000000       0.00000000       0.00000000 </v>
  </generation>
  <varray name="kpointlist" >
   <v>       0.00000000       0.00000000       0.00000000 </v>
   <v>       0.50000000       0.00000000       0.00000000 </v>
   <v>       0.00000000       0.50000000       0.00000000 </v>
   <v>       0.50000000       0.50000000       0.00000000 </v>
   <v>       0.00000000       0.00000000       0.50000000 </v>
   <v>       0.50000000       0.00000000       0.50000000 </v>
   <v>       0.00000000       0.50000000       0.50000000 </v>
   <v>       0.50000000       0.50000000       0.50000000 </v>
  </varray>
  <varray name="weights" >
   <v>       0.12500000 </v>
   <v>       0.12500000 </v>
   <v>       0.12500000 </v>
   <v>       0.12500000 </v>
   <v>       0.12500000 </v>
   <v>       0.12500000 </v>
   <v>       0.12500000 </v>
   <v>       0.12500000 </v>
  </varray>
  <varray name="tetrahedronlist"  type="int" >
   <v type="int" >        2        1        2        4        5 </v>
   <v type="int" >        2        1        3        4        5 </v>
   <v type="int" >        2        3        4        5        7 </v>
   <v type="int" >        2        2        4        5        6 </v>
   <v type="int" >        2        4        5        6        8 </v>
   <v type="int" >        2        4        5        7        8 </v>
   <v type="int" >        2        1        2        3        6 </v>
   <v type="int" >        2        2        3        4        6 </v>
   <v type="int" >        2        3        4        6        8 </v>
   <v type="int" >        2        1        3        5        6 </v>
   <v type="int" >        2        3        5        6        7 </v>
   <v type="int" >        2        3        6        7        8 </v>
   <v type="int" >        2        2        3        4        7 </v>
   <v type="int" >        2        1        2        3        7 </v>
   <v type="int" >        2        1        2        5        7 </v>
   <v type="int" >        2        2        4        7        8 </v>
   <v type="int" >        2        2        6        7        8 </v>
   <v type="int" >        2        2        5        6        7 </v>
   <v type="int" >        2        1        3        4        8 </v>
   <v type="int" >        2        1        2        4        8 </v>
   <v type="int" >        2        1        2        6        8 </v>
   <v type="int" >        2        1        3        7        8 </v>
   <v type="int" >        2        1        5        7        8 </v>
   <v type="int" >        2        1        5        6        8 </v>
  </varray>
  <i name="volumeweight">      0.02083333 </i>
 </kpoints>
 <parameters>
  <separator name="general" >
   <i type="string" name="SYSTEM">La2O2S</i>
   <i type="logical" name="LCOMPAT"> F  </i>
  </separator>
  <separator name="electronic" >
   <i type="string" name="PREC">normal</i>
   <i name="ENMAX">    600.00000000</i>
   <i name="ENAUG">    900.00000000</i>
   <i name="EDIFF">      0.00000100</i>
   <i type="int" name="IALGO">    38</i>
   <i type="int" name="IWAVPR">    11</i>
   <i type="int" name="NBANDS">   280</i>
   <i name="NELECT">    468.00000000</i>
   <i type="int" name="TURBO">     0</i>
   <i type="int" name="IRESTART">     0</i>
   <i type="int" name="NREBOOT">     0</i>
   <i type="int" name="NMIN">     0</i>
   <i name="EREF">      0.00000000</i>
   <separator name="electronic smearing" >
    <i type="int" name="ISMEAR">    -5</i>
    <i name="SIGMA">      0.20000000</i>
    <i name="KSPACING">      0.50000000</i>
    <i type="logical" name="KGAMMA"> T  </i>
   </separator>
   <separator name="electronic projectors" >
    <i type="logical" name="LREAL"> F  </i>
    <v name="ROPT">      0.00000000      0.00000000      0.00000000      0.00000000      0.00000000</v>
    <i type="int" name="LMAXPAW">  -100</i>
    <i type="int" name="LMAXMIX">     2</i>
    <i type="logical" name="NLSPLINE"> F  </i>
   </separator>
   <separator name="electronic startup" >
    <i type="int" name="ISTART">     0</i>
    <i type="int" name="ICHARG">     2</i>
    <i type="int" name="INIWAV">     1</i>
   </separator>
   <separator name="electronic spin" >
    <i type="int" name="ISPIN">     1</i>
    <i type="logical" name="LNONCOLLINEAR"> F  </i>
    <v name="MAGMOM">      1.00000000      1.00000000      1.00000000      1.00000000      1.00000000      1.00000000      1.00000000      1.00000000      1.00000000      1.00000000      1.00000000      1.00000000      1.00000000      1.00000000      1.00000000      1.00000000      1.00000000      1.00000000      1.00000000      1.00000000
      1.00000000      1.00000000      1.00000000      1.00000000      1.00000000      1.00000000      1.00000000      1.00000000      1.00000000      1.00000000      1.00000000      1.00000000      1.00000000      1.00000000      1.00000000      1.00000000      1.00000000      1.00000000      1.00000000      1.00000000
      1.00000000      1.00000000      1.00000000      1.00000000      1.00000000      1.00000000      1.00000000      1.00000000      1.00000000      1.00000000      1.00000000      1.00000000      1.00000000      1.00000000      1.00000000      1.00000000      1.00000000      1.00000000      1.00000000      1.00000000
      1.00000000</v>
    <i name="NUPDOWN">     -1.00000000</i>
    <i type="logical" name="LSORBIT"> F  </i>
    <v name="SAXIS">      0.00000000      0.00000000      1.00000000</v>
    <i type="logical" name="LSPIRAL"> F  </i>
    <v name="QSPIRAL">      0.00000000      0.00000000      0.00000000</v>
    <i type="logical" name="LZEROZ"> F  </i>
   </separator>
   <separator name="electronic exchange-correlation" >
    <i type="logical" name="LASPH"> F  </i>
    <i type="logical" name="LMETAGGA"> F  </i>
   </separator>
   <separator name="electronic convergence" >
    <i type="int" name="NELM">    60</i>
    <i type="int" name="NELMDL">    -5</i>
    <i type="int" name="NELMIN">     4</i>
    <i name="ENINI">    600.00000000</i>
    <separator name="electronic convergence detail" >
     <i type="logical" name="LDIAG"> T  </i>
     <i type="logical" name="LSUBROT"> F  </i>
     <i name="WEIMIN">      0.00100000</i>
     <i name="EBREAK">      0.00000000</i>
     <i name="DEPER">      0.30000000</i>
     <i type="int" name="NRMM">     4</i>
     <i name="TIME">      0.40000000</i>
    </separator>
   </separator>
   <separator name="electronic mixer" >
    <i name="AMIX">      0.40000000</i>
    <i name="BMIX">      1.00000000</i>
    <i name="AMIN">      0.10000000</i>
    <i name="AMIX_MAG">      1.60000000</i>
    <i name="BMIX_MAG">      1.00000000</i>
    <separator name="electronic mixer details" >
     <i type="int" name="IMIX">     4</i>
     <i type="logical" name="MIXFIRST"> F  </i>
     <i type="int" name="MAXMIX">   -45</i>
     <i name="WC">    100.00000000</i>
     <i type="int" name="INIMIX">     1</i>
     <i type="int" name="MIXPRE">     1</i>
     <i type="int" name="MREMOVE">     5</i>
    </separator>
   </separator>
   <separator name="electronic dipolcorrection" >
    <i type="logical" name="LDIPOL"> F  </i>
    <i type="logical" name="LMONO"> F  </i>
    <i type="int" name="IDIPOL">     0</i>
    <i name="EPSILON">      1.00000000</i>
    <v name="DIPOL">   -100.00000000   -100.00000000   -100.00000000</v>
    <i name="EFIELD">      0.00000000</i>
   </separator>
  </separator>
  <separator name="grids" >
   <i type="int" name="NGX">    70</i>
   <i type="int" name="NGY">    60</i>
   <i type="int" name="NGZ">    70</i>
   <i type="int" name="NGXF">   140</i>
   <i type="int" name="NGYF">   120</i>
   <i type="int" name="NGZF">   140</i>
   <i type="logical" name="ADDGRID"> F  </i>
  </separator>
  <separator name="ionic" >
   <i type="int" name="NSW">   200</i>
   <i type="int" name="IBRION">     2</i>
   <i type="int" name="MDALGO">     0</i>
   <i type="int" name="ISIF">     3</i>
   <i name="PSTRESS">      0.00000000</i>
   <i name="EDIFFG">     -0.01000000</i>
   <i type="int" name="NFREE">    10</i>
   <i name="POTIM">      0.50000000</i>
   <i name="SMASS">     -3.00000000</i>
   <i name="SCALEE">      1.00000000</i>
  </separator>
  <separator name="ionic md" >
   <i name="TEBEG">      0.00010000</i>
   <i name="TEEND">      0.00010000</i>
   <i type="int" name="NBLOCK">     1</i>
   <i type="int" name="KBLOCK">   200</i>
   <i type="int" name="NPACO">   256</i>
   <i name="APACO">     16.00000000</i>
  </separator>
  <separator name="symmetry" >
   <i type="int" name="ISYM">     2</i>
   <i name="SYMPREC">      0.00001000</i>
  </separator>
  <separator name="dos" >
   <i type="int" name="LORBIT">     0</i>
   <v name="RWIGS">     -1.00000000     -1.00000000     -1.00000000     -1.00000000     -1.00000000</v>
   <i type="int" name="NEDOS">   301</i>
   <i name="EMIN">     10.00000000</i>
   <i name="EMAX">    -10.00000000</i>
   <i name="EFERMI">      0.00000000</i>
  </separator>
  <separator name="writing" >
   <i type="int" name="NWRITE">     2</i>
   <i type="logical" name="LWAVE"> F  </i>
   <i type="logical" name="LDOWNSAMPLE"> F  </i>
   <i type="logical" name="LCHARG"> F  </i>
   <i type="logical" name="LPARD"> F  </i>
   <i type="logical" name="LVTOT"> F  </i>
   <i type="logical" name="LVHAR"> F  </i>
   <i type="logical" name="LELF"> F  </i>
   <i type="logical" name="LOPTICS"> F  </i>
   <v name="STM">      0.00000000      0.00000000      0.00000000      0.00000000      0.00000000      0.00000000      0.00000000</v>
  </separator>
  <separator name="performance" >
   <i type="int" name="NPAR">    28</i>
   <i type="int" name="NSIM">     4</i>
   <i type="int" name="NBLK">    -1</i>
   <i type="logical" name="LPLANE"> T  </i>
   <i type="logical" name="LSCALAPACK"> T  </i>
   <i type="logical" name="LSCAAWARE"> F  </i>
   <i type="logical" name="LSCALU"> F  </i>
   <i type="logical" name="LASYNC"> F  </i>
   <i type="logical" name="LORBITALREAL"> F  </i>
  </separator>
  <separator name="miscellaneous" >
   <i type="int" name="IDIOT">     3</i>
   <i type="int" name="ISPECIAL">     0</i>
   <i type="logical" name="LMUSIC"> F  </i>
   <v name="POMASS">      7.01000000     24.30500000    208.98000000     32.06600000     16.00000000</v>
   <v name="DARWINR">      0.00000000      0.00000000      0.00000000      0.00000000      0.00000000</v>
   <v name="DARWINV">      1.00000000      1.00000000      1.00000000      1.00000000      1.00000000</v>
   <i type="logical" name="LCORR"> T  </i>
  </separator>
  <i type="logical" name="GGA_COMPAT"> T  </i>
  <i type="logical" name="LBERRY"> F  </i>
  <i type="int" name="ICORELEVEL">     0</i>
  <i type="logical" name="LDAU"> F  </i>
  <i type="int" name="I_CONSTRAINED_M">     0</i>
  <separator name="electronic exchange-correlation" >
   <i type="string" name="GGA">--</i>
   <i type="int" name="VOSKOWN">     0</i>
   <i type="logical" name="LHFCALC"> F  </i>
   <i type="string" name="PRECFOCK"></i>
   <i type="logical" name="LSYMGRAD"> F  </i>
   <i type="logical" name="LHFONE"> F  </i>
   <i type="logical" name="LRHFCALC"> F  </i>
   <i type="logical" name="LTHOMAS"> F  </i>
   <i type="logical" name="LMODELHF"> F  </i>
   <i name="ENCUT4O">     -1.00000000</i>
   <i type="int" name="EXXOEP">     0</i>
   <i type="int" name="FOURORBIT">     0</i>
   <i name="AEXX">      0.00000000</i>
   <i name="HFALPHA">      0.00000000</i>
   <i name="MCALPHA">      0.00000000</i>
   <i name="ALDAX">      1.00000000</i>
   <i name="AGGAX">      1.00000000</i>
   <i name="ALDAC">      1.00000000</i>
   <i name="AGGAC">      1.00000000</i>
   <i type="int" name="NKREDX">     1</i>
   <i type="int" name="NKREDY">     1</i>
   <i type="int" name="NKREDZ">     1</i>
   <i type="logical" name="SHIFTRED"> F  </i>
   <i type="logical" name="ODDONLY"> F  </i>
   <i type="logical" name="EVENONLY"> F  </i>
   <i type="int" name="LMAXFOCK">     0</i>
   <i type="int" name="NMAXFOCKAE">     0</i>
   <i type="logical" name="LFOCKAEDFT"> F  </i>
   <i name="HFSCREEN">      0.00000000</i>
   <i name="HFSCREENC">      0.00000000</i>
   <i type="int" name="NBANDSGWLOW">     0</i>
  </separator>
  <separator name="vdW DFT" >
   <i type="logical" name="LUSE_VDW"> F  </i>
   <i name="Zab_VDW">     -0.84910000</i>
   <i name="PARAM1">      0.12340000</i>
   <i name="PARAM2">      1.00000000</i>
   <i name="PARAM3">      0.00000000</i>
  </separator>
  <separator name="model GW" >
   <i type="int" name="MODEL_GW">     0</i>
   <i name="MODEL_EPS0">     11.77228070</i>
   <i name="MODEL_ALPHA">      1.00000000</i>
  </separator>
  <separator name="linear response parameters" >
   <i type="logical" name="LEPSILON"> F  </i>
   <i type="logical" name="LRPA"> F  </i>
   <i type="logical" name="LNABLA"> F  </i>
   <i type="logical" name="LVEL"> F  </i>
   <i type="int" name="KINTER">     0</i>
   <i name="CSHIFT">      0.10000000</i>
   <i name="OMEGAMAX">     -1.00000000</i>
   <i name="DEG_THRESHOLD">      0.00200000</i>
   <i name="RTIME">     -0.10000000</i>
   <i name="WPLASMAI">      0.00000000</i>
   <v name="DFIELD">      0.00000000      0.00000000      0.00000000</v>
   <v name="WPLASMA">      0.00000000      0.00000000      0.00000000      0.00000000      0.00000000      0.00000000      0.00000000      0.00000000      0.00000000</v>
  </separator>
  <separator name="orbital magnetization" >
   <i type="logical" name="NUCIND"> F  </i>
   <v name="MAGPOS">      0.00000000      0.00000000      0.00000000</v>
   <i type="logical" name="LNICSALL"> T  </i>
   <i type="logical" name="ORBITALMAG"> F  </i>
   <i type="logical" name="LMAGBLOCH"> F  </i>
   <i type="logical" name="LCHIMAG"> F  </i>
   <i type="logical" name="LGAUGE"> T  </i>
   <i type="int" name="MAGATOM">     0</i>
   <v name="MAGDIPOL">      0.00000000      0.00000000      0.00000000</v>
   <v name="AVECCONST">      0.00000000      0.00000000      0.00000000</v>
  </separator>
  <separator name="response functions" >
   <i type="logical" name="LADDER"> F  </i>
   <i type="logical" name="LRPAFORCE"> F  </i>
   <i type="logical" name="LFXC"> F  </i>
   <i type="logical" name="LHARTREE"> T  </i>
   <i type="int" name="IBSE">     0</i>
   <v type="int" name="KPOINT">    -1     0     0     0</v>
   <i type="logical" name="LTCTE"> F  </i>
   <i type="logical" name="LTETE"> F  </i>
   <i type="logical" name="LTRIPLET"> F  </i>
   <i type="logical" name="LFXCEPS"> F  </i>
   <i type="logical" name="LFXHEG"> F  </i>
   <i type="int" name="NATURALO">     2</i>
   <i type="logical" name="L2ORDER"> F  </i>
   <i type="logical" name="LMP2LT"> F  </i>
   <i type="logical" name="LUSEW"> F  </i>
   <i name="ENCUTGW">     -2.00000000</i>
   <i name="ENCUTGWSOFT">     -2.00000000</i>
   <i name="ENCUTLF">     -1.00000000</i>
   <i type="int" name="LMAXMP2">    -1</i>
   <i name="SCISSOR">      0.00000000</i>
   <i type="int" name="NOMEGA">     0</i>
   <i type="int" name="NOMEGAR">     0</i>
   <i type="int" name="NBANDSGW">    -1</i>
   <i type="int" name="NBANDSO">    -1</i>
   <i type="int" name="NBANDSV">    -1</i>
   <i type="int" name="NELM">     1</i>
   <i type="int" name="NELMHF">     1</i>
   <i type="int" name="DIM">     3</i>
   <i type="int" name="ANTIRES">     0</i>
   <i name="OMEGAMAX">    -30.00000000</i>
   <i name="OMEGAMIN">    -30.00000000</i>
   <i name="OMEGATL">   -200.00000000</i>
   <i type="int" name="OMEGAGRID">   140</i>
   <i name="CSHIFT">     -0.10000000</i>
   <i type="logical" name="SELFENERGY"> F  </i>
   <i type="logical" name="LSPECTRAL"> F  </i>
   <i type="logical" name="LSPECTRALGW"> F  </i>
   <i type="logical" name="LSINGLES"> F  </i>
   <i type="logical" name="LFERMIGW"> F  </i>
   <i type="logical" name="ODDONLYGW"> F  </i>
   <i type="logical" name="EVENONLYGW"> F  </i>
   <i type="int" name="NKREDLFX">     1</i>
   <i type="int" name="NKREDLFY">     1</i>
   <i type="int" name="NKREDLFZ">     1</i>
   <i type="int" name="MAXMEM">  2800</i>
   <i type="int" name="TELESCOPE">     0</i>
   <i type="int" name="TAUPAR">     1</i>
   <i type="int" name="OMEGAPAR">    -1</i>
   <i name="LAMBDA">      1.00000000</i>
  </separator>
  <separator name="External order field" >
   <i name="OFIELD_KAPPA">      0.00000000</i>
   <v name="OFIELD_K">      0.00000000      0.00000000      0.00000000</v>
   <i name="OFIELD_Q6_NEAR">      0.00000000</i>
   <i name="OFIELD_Q6_FAR">      0.00000000</i>
   <i name="OFIELD_A">      0.00000000</i>
  </separator>
 </parameters>
 <atominfo>
  <atoms>      61 </atoms>
  <types>       5 </types>
  <array name="atoms" >
   <dimension dim="1">ion</dimension>
   <field type="string">element</field>
   <field type="int">atomtype</field>
   <set>
    <rc><c>Li</c><c>   1</c></rc>
    <rc><c>Li</c><c>   1</c></rc>
    <rc><c>Li</c><c>   1</c></rc>
    <rc><c>Li</c><c>   1</c></rc>
    <rc><c>Li</c><c>   1</c></rc>
    <rc><c>Li</c><c>   1</c></rc>
    <rc><c>Li</c><c>   1</c></rc>
    <rc><c>Li</c><c>   1</c></rc>
    <rc><c>Li</c><c>   1</c></rc>
    <rc><c>Li</c><c>   1</c></rc>
    <rc><c>Mg</c><c>   2</c></rc>
    <rc><c>Mg</c><c>   2</c></rc>
    <rc><c>Mg</c><c>   2</c></rc>
    <rc><c>Bi</c><c>   3</c></rc>
    <rc><c>Bi</c><c>   3</c></rc>
    <rc><c>Bi</c><c>   3</c></rc>
    <rc><c>Bi</c><c>   3</c></rc>
    <rc><c>Bi</c><c>   3</c></rc>
    <rc><c>Bi</c><c>   3</c></rc>
    <rc><c>Bi</c><c>   3</c></rc>
    <rc><c>Bi</c><c>   3</c></rc>
    <rc><c>Bi</c><c>   3</c></rc>
    <rc><c>Bi</c><c>   3</c></rc>
    <rc><c>Bi</c><c>   3</c></rc>
    <rc><c>Bi</c><c>   3</c></rc>
    <rc><c>Bi</c><c>   3</c></rc>
    <rc><c>Bi</c><c>   3</c></rc>
    <rc><c>Bi</c><c>   3</c></rc>
    <rc><c>Bi</c><c>   3</c></rc>
    <rc><c>S </c><c>   4</c></rc>
    <rc><c>S </c><c>   4</c></rc>
    <rc><c>S </c><c>   4</c></rc>
    <rc><c>S </c><c>   4</c></rc>
    <rc><c>S </c><c>   4</c></rc>
    <rc><c>S </c><c>   4</c></rc>
    <rc><c>S </c><c>   4</c></rc>
    <rc><c>S </c><c>   4</c></rc>
    <rc><c>S </c><c>   4</c></rc>
    <rc><c>S </c><c>   4</c></rc>
    <rc><c>S </c><c>   4</c></rc>
    <rc><c>S </c><c>   4</c></rc>
    <rc><c>S </c><c>   4</c></rc>
    <rc><c>S </c><c>   4</c></rc>
    <rc><c>S </c><c>   4</c></rc>
    <rc><c>S </c><c>   4</c></rc>
    <rc><c>O </c><c>   5</c></rc>
    <rc><c>O </c><c>   5</c></rc>
    <rc><c>O </c><c>   5</c></rc>
    <rc><c>O </c><c>   5</c></rc>
    <rc><c>O </c><c>   5</c></rc>
    <rc><c>O </c><c>   5</c></rc>
    <rc><c>O </c><c>   5</c></rc>
    <rc><c>O </c><c>   5</c></rc>
    <rc><c>O </c><c>   5</c></rc>
    <rc><c>O </c><c>   5</c></rc>
    <rc><c>O </c><c>   5</c></rc>
    <rc><c>O </c><c>   5</c></rc>
    <rc><c>O </c><c>   5</c></rc>
    <rc><c>O </c><c>   5</c></rc>
    <rc><c>O </c><c>   5</c></rc>
    <rc><c>O </c><c>   5</c></rc>
   </set>
  </array>
  <array name="atomtypes" >
   <dimension dim="1">type</dimension>
   <field type="int">atomspertype</field>
   <field type="string">element</field>
   <field>mass</field>
   <field>valence</field>
   <field type="string">pseudopotential</field>
   <set>
    <rc><c>  10</c><c>Li</c><c>      7.01000000</c><c>      3.00000000</c><c>  PAW_PBE Li_sv 10Sep2004               </c></rc>
    <rc><c>   3</c><c>Mg</c><c>     24.30500000</c><c>      2.00000000</c><c>  PAW_PBE Mg 13Apr2007                  </c></rc>
    <rc><c>  16</c><c>Bi</c><c>    208.98000000</c><c>     15.00000000</c><c>  PAW_PBE Bi_d 06Sep2000                </c></rc>
    <rc><c>  16</c><c>S </c><c>     32.06600000</c><c>      6.00000000</c><c>  PAW_PBE S 06Sep2000                   </c></rc>
    <rc><c>  16</c><c>O </c><c>     16.00000000</c><c>      6.00000000</c><c>  PAW_PBE O 08Apr2002                   </c></rc>
   </set>
  </array>
 </atominfo>
 <structure name="initialpos" >
  <crystal>
   <varray name="basis" >
    <v>      11.17850000       0.00000000       0.00000000 </v>
    <v>       0.00000000       9.57460000       0.00000000 </v>
    <v>       0.00000000       0.00000000      11.18240000 </v>
   </varray>
   <i name="volume">   1196.84853820 </i>
   <varray name="rec_basis" >
    <v>       0.08945744       0.00000000       0.00000000 </v>
    <v>       0.00000000       0.10444301       0.00000000 </v>
    <v>       0.00000000       0.00000000       0.08942624 </v>
   </varray>
  </crystal>
  <varray name="positions" >
   <v>       0.37539000       0.00017000       0.43687000 </v>
   <v>       0.12461000       0.99984000       0.18687000 </v>
   <v>       0.62539000       0.99984000       0.43687000 </v>
   <v>       0.62461000       0.99984000       0.18687000 </v>
   <v>       0.12539000       0.99984000       0.93687000 </v>
   <v>       0.37539000       0.00017000       0.93687000 </v>
   <v>       0.12461000       0.99984000       0.68687000 </v>
   <v>       0.37461000       0.00017000       0.68687000 </v>
   <v>       0.62539000       0.99984000       0.93687000 </v>
   <v>       0.87539000       0.00017000       0.93687000 </v>
   <v>       0.87539000       0.00017000       0.43687000 </v>
   <v>       0.87461000       0.00017000       0.18687000 </v>
   <v>       0.62461000       0.99984000       0.68687000 </v>
   <v>       0.00013000       0.29519000       0.06281000 </v>
   <v>       0.25013000       0.70481000       0.06281000 </v>
   <v>       0.24987000       0.29519000       0.31282000 </v>
   <v>       0.49987000       0.70481000       0.31282000 </v>
   <v>       0.50013000       0.29519000       0.06281000 </v>
   <v>       0.75013000       0.70481000       0.06281000 </v>
   <v>       0.74987000       0.29519000       0.31282000 </v>
   <v>       0.99987000       0.70481000       0.31282000 </v>
   <v>       0.00013000       0.29519000       0.56281000 </v>
   <v>       0.25013000       0.70481000       0.56281000 </v>
   <v>       0.24987000       0.29519000       0.81282000 </v>
   <v>       0.49987000       0.70481000       0.81282000 </v>
   <v>       0.50013000       0.29519000       0.56281000 </v>
   <v>       0.75013000       0.70481000       0.56281000 </v>
   <v>       0.74987000       0.29519000       0.81282000 </v>
   <v>       0.99987000       0.70481000       0.81282000 </v>
   <v>       0.25005000       0.32677000       0.06286000 </v>
   <v>       0.00005000       0.67323000       0.06286000 </v>
   <v>       0.49995000       0.32677000       0.31286000 </v>
   <v>       0.24995000       0.67323000       0.31286000 </v>
   <v>       0.75005000       0.32677000       0.06286000 </v>
   <v>       0.50005000       0.67323000       0.06286000 </v>
   <v>       0.99995000       0.32677000       0.31286000 </v>
   <v>       0.74995000       0.67323000       0.31286000 </v>
   <v>       0.25005000       0.32677000       0.56286000 </v>
   <v>       0.00005000       0.67323000       0.56286000 </v>
   <v>       0.49995000       0.32677000       0.81286000 </v>
   <v>       0.24995000       0.67323000       0.81286000 </v>
   <v>       0.75005000       0.32677000       0.56286000 </v>
   <v>       0.50005000       0.67323000       0.56286000 </v>
   <v>       0.99995000       0.32677000       0.81286000 </v>
   <v>       0.74995000       0.67323000       0.81286000 </v>
   <v>       0.49987000       0.07798000       0.06246000 </v>
   <v>       0.24987000       0.92202000       0.06246000 </v>
   <v>       0.25013000       0.07798000       0.31246000 </v>
   <v>       0.00013000       0.92202000       0.31246000 </v>
   <v>       0.99987000       0.07798000       0.06246000 </v>
   <v>       0.74987000       0.92202000       0.06246000 </v>
   <v>       0.75013000       0.07798000       0.31246000 </v>
   <v>       0.50013000       0.92202000       0.31246000 </v>
   <v>       0.49987000       0.07798000       0.56246000 </v>
   <v>       0.24987000       0.92202000       0.56246000 </v>
   <v>       0.25013000       0.07798000       0.81246000 </v>
   <v>       0.00013000       0.92202000       0.81246000 </v>
   <v>       0.99987000       0.07798000       0.56246000 </v>
   <v>       0.74987000       0.92202000       0.56246000 </v>
   <v>       0.75013000       0.07798000       0.81246000 </v>
   <v>       0.50013000       0.92202000       0.81246000 </v>
  </varray>
 </structure>
 <calculation>
  <scstep>
   <time name="dav">   59.11   59.12</time>
   <time name="total">   59.19   59.21</time>
   <energy>
    <i name="alphaZ">   1073.51873187 </i>
    <i name="ewald"> -30884.60035783 </i>
    <i name="hartreedc"> -12704.64895723 </i>
    <i name="XCdc">   1395.00897130 </i>
    <i name="pawpsdc">  36823.70205594 </i>
    <i name="pawaedc"> -36326.52930246 </i>
    <i name="eentropy">      0.00000000 </i>
    <i name="bandstr">   1811.31946290 </i>
    <i name="atom">  44791.06186932 </i>
    <i name="e_fr_energy">   5978.83247381 </i>
    <i name="e_wo_entrp">   5978.83247381 </i>
    <i name="e_0_energy">   5978.83247381 </i>
   </energy>
  </scstep>
  <scstep>
   <time name="dav">   59.93   59.99</time>
   <time name="total">   59.94   60.00</time>
   <energy>
    <i name="e_fr_energy">    799.88604549 </i>
    <i name="e_wo_entrp">    799.88604549 </i>
    <i name="e_0_energy">    799.88604549 </i>
   </energy>
  </scstep>
  <scstep>
   <time name="dav">   67.91   68.10</time>
   <time name="total">   67.92   68.10</time>
   <energy>
    <i name="e_fr_energy">   -241.77127801 </i>
    <i name="e_wo_entrp">   -241.77127801 </i>
    <i name="e_0_energy">   -241.77127801 </i>
   </energy>
  </scstep>
  <scstep>
   <time name="dav">   71.45   71.61</time>
   <time name="total">   71.45   71.61</time>
   <energy>
    <i name="e_fr_energy">   -345.92208099 </i>
    <i name="e_wo_entrp">   -345.92208099 </i>
    <i name="e_0_energy">   -345.92208099 </i>
   </energy>
  </scstep>
  <scstep>
   <time name="dav">   95.68   95.85</time>
   <time name="total">   96.40   96.57</time>
   <energy>
    <i name="e_fr_energy">   -354.43947860 </i>
    <i name="e_wo_entrp">   -354.43947860 </i>
    <i name="e_0_energy">   -354.43947860 </i>
   </energy>
  </scstep>
  <scstep>
   <time name="dav">   85.17   85.16</time>
   <time name="total">   85.96   85.96</time>
   <energy>
    <i name="e_fr_energy">   -295.30234657 </i>
    <i name="e_wo_entrp">   -295.30234657 </i>
    <i name="e_0_energy">   -295.30234657 </i>
   </energy>
  </scstep>
  <scstep>
   <time name="dav">   64.35   64.36</time>
   <time name="total">   65.14   65.15</time>
   <energy>
    <i name="e_fr_energy">   -297.84129888 </i>
    <i name="e_wo_entrp">   -297.84129888 </i>
    <i name="e_0_energy">   -297.84129888 </i>
   </energy>
  </scstep>
  <scstep>
   <time name="dav">   78.18   78.16</time>
   <time name="total">   78.97   78.95</time>
   <energy>
    <i name="e_fr_energy">   -296.52156477 </i>
    <i name="e_wo_entrp">   -296.52156477 </i>
    <i name="e_0_energy">   -296.52156477 </i>
   </energy>
  </scstep>
  <scstep>
   <time name="dav">   68.24   68.23</time>
   <time name="total">   69.03   69.03</time>
   <energy>
    <i name="e_fr_energy">   -295.83544365 </i>
    <i name="e_wo_entrp">   -295.83544365 </i>
    <i name="e_0_energy">   -295.83544365 </i>
   </energy>
  </scstep>
  <scstep>
   <time name="dav">   73.28   73.29</time>
   <time name="total">   74.07   74.08</time>
   <energy>
    <i name="e_fr_energy">   -295.88521343 </i>
    <i name="e_wo_entrp">   -295.88521343 </i>
    <i name="e_0_energy">   -295.88521343 </i>
   </energy>
  </scstep>
  <scstep>
   <time name="dav">   82.20   82.21</time>
   <time name="total">   83.00   83.01</time>
   <energy>
    <i name="e_fr_energy">   -295.88662658 </i>
    <i name="e_wo_entrp">   -295.88662658 </i>
    <i name="e_0_energy">   -295.88662658 </i>
   </energy>
  </scstep>
  <scstep>
   <time name="dav">   73.24   73.25</time>
   <time name="total">   74.03   74.04</time>
   <energy>
    <i name="e_fr_energy">   -295.89063020 </i>
    <i name="e_wo_entrp">   -295.89063020 </i>
    <i name="e_0_energy">   -295.89063020 </i>
   </energy>
  </scstep>
  <scstep>
   <time name="dav">   76.44   76.45</time>
   <time name="total">   77.24   77.24</time>
   <energy>
    <i name="e_fr_energy">   -295.89167283 </i>
    <i name="e_wo_entrp">   -295.89167283 </i>
    <i name="e_0_energy">   -295.89167283 </i>
   </energy>
  </scstep>
  <scstep>
   <time name="dav">   71.89   71.89</time>
   <time name="total">   72.68   72.69</time>
   <energy>
    <i name="e_fr_energy">   -295.89156793 </i>
    <i name="e_wo_entrp">   -295.89156793 </i>
    <i name="e_0_energy">   -295.89156793 </i>
   </energy>
  </scstep>
  <scstep>
   <time name="dav">   75.84   75.83</time>
   <time name="total">   76.63   76.63</time>
   <energy>
    <i name="e_fr_energy">   -295.89171814 </i>
    <i name="e_wo_entrp">   -295.89171814 </i>
    <i name="e_0_energy">   -295.89171814 </i>
   </energy>
  </scstep>
  <scstep>
   <time name="dav">   83.64   83.64</time>
   <time name="total">   84.43   84.44</time>
   <energy>
    <i name="e_fr_energy">   -295.89173961 </i>
    <i name="e_wo_entrp">   -295.89173961 </i>
    <i name="e_0_energy">   -295.89173961 </i>
   </energy>
  </scstep>
  <scstep>
   <time name="dav">   66.37   66.39</time>
   <time name="total">   67.17   67.19</time>
   <energy>
    <i name="e_fr_energy">   -295.89174959 </i>
    <i name="e_wo_entrp">   -295.89174959 </i>
    <i name="e_0_energy">   -295.89174959 </i>
   </energy>
  </scstep>
  <scstep>
   <time name="dav">   67.89   67.89</time>
   <time name="total">   68.70   68.71</time>
   <energy>
    <i name="e_fr_energy">   -295.89175167 </i>
    <i name="e_wo_entrp">   -295.89175167 </i>
    <i name="e_0_energy">   -295.89175167 </i>
   </energy>
  </scstep>
  <scstep>
   <time name="dav">   58.99   59.00</time>
   <time name="total">   59.79   59.79</time>
   <energy>
    <i name="e_fr_energy">   -295.89175277 </i>
    <i name="e_wo_entrp">   -295.89175277 </i>
    <i name="e_0_energy">   -295.89175277 </i>
   </energy>
  </scstep>
  <scstep>
   <time name="dav">   45.01   45.06</time>
   <time name="total">   45.09   45.14</time>
   <energy>
    <i name="alphaZ">   1073.51873187 </i>
    <i name="ewald"> -30884.60035783 </i>
    <i name="hartreedc"> -12937.65061876 </i>
    <i name="XCdc">   1418.34892981 </i>
    <i name="pawpsdc">  43854.47744966 </i>
    <i name="pawaedc"> -43332.47181203 </i>
    <i name="eentropy">      0.00000000 </i>
    <i name="bandstr">  -4278.57594446 </i>
    <i name="atom">  44791.06186932 </i>
    <i name="e_fr_energy">   -295.89175243 </i>
    <i name="e_wo_entrp">   -295.89175243 </i>
    <i name="e_0_energy">   -295.89175243 </i>
   </energy>
  </scstep>
  <structure>
   <crystal>
    <varray name="basis" >
     <v>      11.17850000       0.00000000       0.00000000 </v>
     <v>       0.00000000       9.57460000       0.00000000 </v>
     <v>       0.00000000       0.00000000      11.18240000 </v>
    </varray>
    <i name="volume">   1196.84853820 </i>
    <varray name="rec_basis" >
     <v>       0.08945744       0.00000000       0.00000000 </v>
     <v>       0.00000000       0.10444301       0.00000000 </v>
     <v>       0.00000000       0.00000000       0.08942624 </v>
    </varray>
   </crystal>
   <varray name="positions" >
    <v>       0.37539000       0.00017000       0.43687000 </v>
    <v>       0.12461000       0.99984000       0.18687000 </v>
    <v>       0.62539000       0.99984000       0.43687000 </v>
    <v>       0.62461000       0.99984000       0.18687000 </v>
    <v>       0.12539000       0.99984000       0.93687000 </v>
    <v>       0.37539000       0.00017000       0.93687000 </v>
    <v>       0.12461000       0.99984000       0.68687000 </v>
    <v>       0.37461000       0.00017000       0.68687000 </v>
    <v>       0.62539000       0.99984000       0.93687000 </v>
    <v>       0.87539000       0.00017000       0.93687000 </v>
    <v>       0.87539000       0.00017000       0.43687000 </v>
    <v>       0.87461000       0.00017000       0.18687000 </v>
    <v>       0.62461000       0.99984000       0.68687000 </v>
    <v>       0.00013000       0.29519000       0.06281000 </v>
    <v>       0.25013000       0.70481000       0.06281000 </v>
    <v>       0.24987000       0.29519000       0.31282000 </v>
    <v>       0.49987000       0.70481000       0.31282000 </v>
    <v>       0.50013000       0.29519000       0.06281000 </v>
    <v>       0.75013000       0.70481000       0.06281000 </v>
    <v>       0.74987000       0.29519000       0.31282000 </v>
    <v>       0.99987000       0.70481000       0.31282000 </v>
    <v>       0.00013000       0.29519000       0.56281000 </v>
    <v>       0.25013000       0.70481000       0.56281000 </v>
    <v>       0.24987000       0.29519000       0.81282000 </v>
    <v>       0.49987000       0.70481000       0.81282000 </v>
    <v>       0.50013000       0.29519000       0.56281000 </v>
    <v>       0.75013000       0.70481000       0.56281000 </v>
    <v>       0.74987000       0.29519000       0.81282000 </v>
    <v>       0.99987000       0.70481000       0.81282000 </v>
    <v>       0.25005000       0.32677000       0.06286000 </v>
    <v>       0.00005000       0.67323000       0.06286000 </v>
    <v>       0.49995000       0.32677000       0.31286000 </v>
    <v>       0.24995000       0.67323000       0.31286000 </v>
    <v>       0.75005000       0.32677000       0.06286000 </v>
    <v>       0.50005000       0.67323000       0.06286000 </v>
    <v>       0.99995000       0.32677000       0.31286000 </v>
    <v>       0.74995000       0.67323000       0.31286000 </v>
    <v>       0.25005000       0.32677000       0.56286000 </v>
    <v>       0.00005000       0.67323000       0.56286000 </v>
    <v>       0.49995000       0.32677000       0.81286000 </v>
    <v>       0.24995000       0.67323000       0.81286000 </v>
    <v>       0.75005000       0.32677000       0.56286000 </v>
    <v>       0.50005000       0.67323000       0.56286000 </v>
    <v>       0.99995000       0.32677000       0.81286000 </v>
    <v>       0.74995000       0.67323000       0.81286000 </v>
    <v>       0.49987000       0.07798000       0.06246000 </v>
    <v>       0.24987000       0.92202000       0.06246000 </v>
    <v>       0.25013000       0.07798000       0.31246000 </v>
    <v>       0.00013000       0.92202000       0.31246000 </v>
    <v>       0.99987000       0.07798000       0.06246000 </v>
    <v>       0.74987000       0.92202000       0.06246000 </v>
    <v>       0.75013000       0.07798000       0.31246000 </v>
    <v>       0.50013000       0.92202000       0.31246000 </v>
    <v>       0.49987000       0.07798000       0.56246000 </v>
    <v>       0.24987000       0.92202000       0.56246000 </v>
    <v>       0.25013000       0.07798000       0.81246000 </v>
    <v>       0.00013000       0.92202000       0.81246000 </v>
    <v>       0.99987000       0.07798000       0.56246000 </v>
    <v>       0.74987000       0.92202000       0.56246000 </v>
    <v>       0.75013000       0.07798000       0.81246000 </v>
    <v>       0.50013000       0.92202000       0.81246000 </v>
   </varray>
  </structure>
  <varray name="forces" >
   <v>      -0.64730799      -0.07824735      -0.55625974 </v>
   <v>       1.14946223       0.05805135       0.39666680 </v>
   <v>      -0.64344494      -0.18845491      -0.37596525 </v>
   <v>      -1.15120791      -0.06135248      -0.09321459 </v>
   <v>       0.16476443      -0.18900039      -0.08238045 </v>
   <v>      -0.16492075       0.07259648       0.58259825 </v>
   <v>      -0.32882459      -0.06410351      -0.39760598 </v>
   <v>      -0.72093846      -0.05776122      -0.14418083 </v>
   <v>      -0.15823737       0.19749048       0.38875269 </v>
   <v>       0.13582067      -0.06305379      -0.91609356 </v>
   <v>       1.28870784       0.11662947       1.85668756 </v>
   <v>       0.37213187      -0.10576285      -0.75439206 </v>
   <v>       0.71480254       0.12533764       0.23135303 </v>
   <v>       0.49890398       1.09170784      -0.21437763 </v>
   <v>       0.20792774       1.01541216       0.18140995 </v>
   <v>       0.12308365      -1.94246738      -0.00991294 </v>
   <v>      -0.58582386       0.93150800      -0.22316455 </v>
   <v>      -0.50568318      -0.97784120       0.21331627 </v>
   <v>      -0.20783562      -1.12085972      -0.19505484 </v>
   <v>      -0.32037535       2.12188654      -0.02114487 </v>
   <v>       0.82963105      -1.11763580       0.21577671 </v>
   <v>       0.44862373      -1.00019274       0.16897553 </v>
   <v>      -0.19018750       0.99163838      -0.19222480 </v>
   <v>      -0.08657035       0.02133811       0.00489112 </v>
   <v>      -0.40519469      -1.05195111       0.18674015 </v>
   <v>      -0.51818321       1.09016102      -0.19511800 </v>
   <v>       0.21514951      -1.02390587       0.23759907 </v>
   <v>       0.29424410       0.05211027      -0.03751435 </v>
   <v>       0.20158512       0.98316919      -0.18941763 </v>
   <v>      -0.21509328       0.21733572      -0.23252991 </v>
   <v>      -0.38559503      -0.12964679       0.23507775 </v>
   <v>       0.53323189       0.14485224       0.19250364 </v>
   <v>      -0.18757045      -0.20475599      -0.00596925 </v>
   <v>       0.22245147       0.05515149       0.19651829 </v>
   <v>       0.35359081      -0.14811574      -0.18851377 </v>
   <v>      -0.60485795       0.02960132      -0.20277506 </v>
   <v>       0.25133965       0.00278919      -0.01548332 </v>
   <v>       0.22005430       0.21928612       0.23417907 </v>
   <v>      -0.38040038      -0.09579440      -0.24066772 </v>
   <v>       0.18926496       0.14062488      -0.23069420 </v>
   <v>       0.19684497      -0.26773114      -0.00350508 </v>
   <v>      -0.18945431       0.00661690      -0.15435061 </v>
   <v>       0.36756858      -0.13035250       0.22526613 </v>
   <v>      -0.13783196       0.16375910       0.20915002 </v>
   <v>      -0.22764388      -0.04488062      -0.02246050 </v>
   <v>       0.88881210       0.72131899      -0.70277799 </v>
   <v>      -0.72266432      -0.84007232      -0.68539479 </v>
   <v>      -0.12230279       1.69584450      -0.01664469 </v>
   <v>      -1.95820404       0.96691343      -0.72586716 </v>
   <v>      -0.81020713      -0.85482456       0.64703314 </v>
   <v>       0.63164522       0.95601538       0.65530309 </v>
   <v>       1.03404360      -1.69636361      -0.02298373 </v>
   <v>       1.01494862      -0.68504470       0.70578254 </v>
   <v>       0.80022359      -0.85289725       0.62946435 </v>
   <v>       0.75487653      -0.83593775       0.70878922 </v>
   <v>       0.14689367       0.05971434      -0.00392601 </v>
   <v>       0.43132911      -0.77833858       0.76250056 </v>
   <v>      -0.78052991       0.86833024      -0.67779068 </v>
   <v>      -0.72949174       0.80878149      -0.79565313 </v>
   <v>      -1.23919381      -0.13159407       0.10793534 </v>
   <v>       0.64381924       0.81296810      -0.64826064 </v>
  </varray>
  <varray name="stress" >
   <v>      -7.64979302      -0.60978533      -1.96580291 </v>
   <v>      -0.60978521     -13.46899885      -0.42743759 </v>
   <v>      -1.96580283      -0.42743808      -4.47133145 </v>
  </varray>
  <energy>
   <i name="e_fr_energy">   -310.59891457 </i>
   <i name="e_wo_entrp">   -310.59891457 </i>
   <i name="e_0_energy">      0.00000000 </i>
  </energy>
  <time name="totalsc"> 1553.09 1554.00</time>
 </calculation>
 <calculation>
  <scstep>
   <time name="dav">   61.43   61.44</time>
   <time name="total">   62.21   62.23</time>
   <energy>
    <i name="alphaZ">   1089.92314819 </i>
    <i name="ewald"> -31030.70795622 </i>
    <i name="hartreedc"> -13004.05548722 </i>
    <i name="XCdc">   1427.28560713 </i>
    <i name="pawpsdc">  43854.45177568 </i>
    <i name="pawaedc"> -43332.44934635 </i>
    <i name="eentropy">      0.00000000 </i>
    <i name="bandstr">  -4090.33416874 </i>
    <i name="atom">  44791.06186932 </i>
    <i name="e_fr_energy">   -294.82455821 </i>
    <i name="e_wo_entrp">   -294.82455821 </i>
    <i name="e_0_energy">   -294.82455821 </i>
   </energy>
  </scstep>
  <scstep>
   <time name="dav">   69.44   69.47</time>
   <time name="total">   70.23   70.26</time>
   <energy>
    <i name="e_fr_energy">   -297.64778025 </i>
    <i name="e_wo_entrp">   -297.64778025 </i>
    <i name="e_0_energy">   -297.64778025 </i>
   </energy>
  </scstep>
  <scstep>
   <time name="dav">   88.62   88.69</time>
   <time name="total">   89.41   89.49</time>
   <energy>
    <i name="e_fr_energy">   -297.44195977 </i>
    <i name="e_wo_entrp">   -297.44195977 </i>
    <i name="e_0_energy">   -297.44195977 </i>
   </energy>
  </scstep>
  <scstep>
   <time name="dav">   78.83   78.86</time>
   <time name="total">   79.63   79.65</time>
   <energy>
    <i name="e_fr_energy">   -297.29971318 </i>
    <i name="e_wo_entrp">   -297.29971318 </i>
    <i name="e_0_energy">   -297.29971318 </i>
   </energy>
  </scstep>
  <scstep>
   <time name="dav">   72.87   72.89</time>
   <time name="total">   73.66   73.69</time>
   <energy>
    <i name="e_fr_energy">   -297.30024782 </i>
    <i name="e_wo_entrp">   -297.30024782 </i>
    <i name="e_0_energy">   -297.30024782 </i>
   </energy>
  </scstep>
  <scstep>
   <time name="dav">   79.53   79.59</time>
   <time name="total">   80.33   80.39</time>
   <energy>
    <i name="e_fr_energy">   -297.29881695 </i>
    <i name="e_wo_entrp">   -297.29881695 </i>
    <i name="e_0_energy">   -297.29881695 </i>
   </energy>
  </scstep>
  <scstep>
   <time name="dav">   73.72   73.78</time>
   <time name="total">   74.51   74.57</time>
   <energy>
    <i name="e_fr_energy">   -297.29783607 </i>
    <i name="e_wo_entrp">   -297.29783607 </i>
    <i name="e_0_energy">   -297.29783607 </i>
   </energy>
  </scstep>
  <scstep>
   <time name="dav">   91.04   91.11</time>
   <time name="total">   91.83   91.91</time>
   <energy>
    <i name="e_fr_energy">   -297.29779482 </i>
    <i name="e_wo_entrp">   -297.29779482 </i>
    <i name="e_0_energy">   -297.29779482 </i>
   </energy>
  </scstep>
  <scstep>
   <time name="dav">   64.27   64.30</time>
   <time name="total">   65.07   65.10</time>
   <energy>
    <i name="e_fr_energy">   -297.29784371 </i>
    <i name="e_wo_entrp">   -297.29784371 </i>
    <i name="e_0_energy">   -297.29784371 </i>
   </energy>
  </scstep>
  <scstep>
   <time name="dav">   85.29   85.32</time>
   <time name="total">   86.08   86.12</time>
   <energy>
    <i name="e_fr_energy">   -297.29784907 </i>
    <i name="e_wo_entrp">   -297.29784907 </i>
    <i name="e_0_energy">   -297.29784907 </i>
   </energy>
  </scstep>
  <scstep>
   <time name="dav">   71.11   71.21</time>
   <time name="total">   71.91   72.01</time>
   <energy>
    <i name="e_fr_energy">   -297.29784943 </i>
    <i name="e_wo_entrp">   -297.29784943 </i>
    <i name="e_0_energy">   -297.29784943 </i>
   </energy>
  </scstep>
  <scstep>
   <time name="dav">   68.71   69.12</time>
   <time name="total">   68.79   69.19</time>
   <energy>
    <i name="alphaZ">   1089.92314819 </i>
    <i name="ewald"> -31030.70795622 </i>
    <i name="hartreedc"> -12867.97861979 </i>
    <i name="XCdc">   1421.17741960 </i>
    <i name="pawpsdc">  44222.25388128 </i>
    <i name="pawaedc"> -43703.45691181 </i>
    <i name="eentropy">      0.00000000 </i>
    <i name="bandstr">  -4219.57067956 </i>
    <i name="atom">  44791.06186932 </i>
    <i name="e_fr_energy">   -297.29784898 </i>
    <i name="e_wo_entrp">   -297.29784898 </i>
    <i name="e_0_energy">   -297.29784898 </i>
   </energy>
  </scstep>
  <structure>
   <crystal>
    <varray name="basis" >
     <v>      11.12798002      -0.00402708      -0.01298235 </v>
     <v>      -0.00344927       9.49841211      -0.00241782 </v>
     <v>      -0.01298688      -0.00282383      11.15286059 </v>
    </varray>
    <i name="volume">   1178.83478949 </i>
    <varray name="rec_basis" >
     <v>       0.08986370       0.00003266       0.00010465 </v>
     <v>       0.00003813       0.10528078       0.00002670 </v>
     <v>       0.00010461       0.00002286       0.08966322 </v>
    </varray>
   </crystal>
   <varray name="positions" >
    <v>       0.37259644      -0.00022426       0.43447021 </v>
    <v>       0.12957069       0.00013250       0.18858128 </v>
    <v>       0.62261311       0.99889045       0.43524803 </v>
    <v>       0.61964177       0.99953087       0.18646786 </v>
    <v>       0.12610107       0.99888770       0.93651460 </v>
    <v>       0.37467826       0.00053579       0.93938342 </v>
    <v>       0.12319090       0.99951701       0.68515466 </v>
    <v>       0.37149867      -0.00012104       0.68624798 </v>
    <v>       0.62470710       0.00083508       0.93854714 </v>
    <v>       0.87597616      -0.00014770       0.93291783 </v>
    <v>       0.88095163       0.00075765       0.44488005 </v>
    <v>       0.87621600      -0.00036290       0.18361543 </v>
    <v>       0.62769485       0.00047153       0.68786809 </v>
    <v>       0.00228310       0.30069069       0.06188514 </v>
    <v>       0.25102735       0.70992626       0.06359263 </v>
    <v>       0.25040119       0.28540267       0.31277723 </v>
    <v>       0.49734178       0.70950350       0.31185723 </v>
    <v>       0.49794764       0.29026304       0.06373028 </v>
    <v>       0.74923305       0.69916243       0.06196850 </v>
    <v>       0.74848737       0.30588135       0.31272878 </v>
    <v>       0.00345041       0.69917867       0.31375090 </v>
    <v>       0.00206611       0.29015042       0.56353899 </v>
    <v>       0.24930921       0.70980648       0.56198071 </v>
    <v>       0.24949639       0.29529751       0.81284110 </v>
    <v>       0.49812132       0.69950963       0.81362563 </v>
    <v>       0.49789370       0.30068289       0.56196823 </v>
    <v>       0.75105851       0.69965094       0.56383504 </v>
    <v>       0.75113986       0.29545256       0.81265816 </v>
    <v>       0.00073997       0.70976380       0.81200282 </v>
    <v>       0.24912173       0.32786507       0.06185683 </v>
    <v>      -0.00161410       0.67257676       0.06387416 </v>
    <v>       0.50225125       0.32749985       0.31369049 </v>
    <v>       0.24914051       0.67219831       0.31283425 </v>
    <v>       0.75101003       0.32704789       0.06370781 </v>
    <v>       0.50157598       0.67248370       0.06204672 </v>
    <v>       0.99733964       0.32691915       0.31198520 </v>
    <v>       0.75103470       0.67324405       0.31279320 </v>
    <v>       0.25099968       0.32787490       0.56387029 </v>
    <v>      -0.00159168       0.67274733       0.56182172 </v>
    <v>       0.50076680       0.32747855       0.81186475 </v>
    <v>       0.25079952       0.67188101       0.81284488 </v>
    <v>       0.74923238       0.32680334       0.56219411 </v>
    <v>       0.50163630       0.67257320       0.56383183 </v>
    <v>       0.99935516       0.32759512       0.81376231 </v>
    <v>       0.74896757       0.67300386       0.81276310 </v>
    <v>       0.50370581       0.08161444       0.05942810 </v>
    <v>       0.24675122       0.91778721       0.05950310 </v>
    <v>       0.24960218       0.08652470       0.31238819 </v>
    <v>      -0.00832095       0.92689190       0.30932849 </v>
    <v>       0.99637342       0.07367287       0.06525140 </v>
    <v>       0.75259597       0.92683699       0.06528708 </v>
    <v>       0.75459259       0.06943269       0.31236084 </v>
    <v>       0.50451018       0.91856833       0.31550486 </v>
    <v>       0.50332350       0.07368259       0.56517561 </v>
    <v>       0.25312779       0.91780804       0.56551783 </v>
    <v>       0.25076394       0.07828088       0.81244306 </v>
    <v>       0.00199147       0.91809826       0.81574955 </v>
    <v>       0.99650149       0.08235518       0.55953590 </v>
    <v>       0.74672176       0.92609513       0.55902743 </v>
    <v>       0.74478206       0.07731695       0.81292565 </v>
    <v>       0.50290851       0.92611623       0.80966330 </v>
   </varray>
  </structure>
  <varray name="forces" >
   <v>      -0.36623956      -0.04825680      -0.30201023 </v>
   <v>       0.61001699       0.02223042       0.31768973 </v>
   <v>      -0.22164883      -0.08440201      -0.26243885 </v>
   <v>      -0.53347114      -0.03700805       0.02709548 </v>
   <v>       0.03865586      -0.09361683       0.01094693 </v>
   <v>      -0.03947368       0.03771895       0.29570746 </v>
   <v>      -0.24922460      -0.03277668      -0.28709227 </v>
   <v>      -0.28580813      -0.01907716      -0.06194925 </v>
   <v>      -0.05609252       0.10504996       0.26020195 </v>
   <v>       0.00942585      -0.02870994      -0.56172325 </v>
   <v>       0.18011191      -0.13689055       0.43586506 </v>
   <v>      -0.12294597       0.00002764      -0.02858504 </v>
   <v>       0.39083370       0.00323489      -0.05448056 </v>
   <v>       0.14641311       0.01143606      -0.00587618 </v>
   <v>       0.07887489      -1.08183978       0.06183415 </v>
   <v>      -0.00072623       2.63479614       0.00029423 </v>
   <v>      -0.15181472      -0.81540209      -0.07713539 </v>
   <v>      -0.20910216       0.89687182       0.08746927 </v>
   <v>      -0.02648901       0.07683881       0.02084367 </v>
   <v>      -0.03060390      -0.14552724      -0.02785148 </v>
   <v>       0.20387565       0.15995312       0.00458112 </v>
   <v>       0.21135442       1.19642205       0.03295128 </v>
   <v>      -0.03394535      -1.07973303      -0.06774485 </v>
   <v>       0.05010205       0.37690543       0.00238703 </v>
   <v>      -0.18107658       0.02337358      -0.01871182 </v>
   <v>      -0.16343789      -0.04665079      -0.00152384 </v>
   <v>      -0.02122250       0.01405667      -0.00112904 </v>
   <v>       0.07550710       0.18107053      -0.00917769 </v>
   <v>       0.06322567      -1.00153785      -0.03175729 </v>
   <v>      -0.11675834       0.13673717      -0.13375729 </v>
   <v>      -0.16801443      -0.23385482       0.11049136 </v>
   <v>       0.22894972       0.10692715       0.08585089 </v>
   <v>      -0.09130849      -0.07056782      -0.00209710 </v>
   <v>       0.08848633       0.19187682       0.05933134 </v>
   <v>       0.16368387      -0.08668086      -0.09167376 </v>
   <v>      -0.25942367       0.18993800      -0.07025108 </v>
   <v>       0.09530680      -0.28038471      -0.01075084 </v>
   <v>       0.09654106       0.13636941       0.13275109 </v>
   <v>      -0.18015730      -0.01151744      -0.12757986 </v>
   <v>       0.09479652       0.24519181      -0.10479523 </v>
   <v>       0.08343667      -0.24246472      -0.00247177 </v>
   <v>      -0.04899777       0.12778049      -0.02945889 </v>
   <v>       0.16206695      -0.24125747       0.10439273 </v>
   <v>      -0.05082104       0.08857045       0.09679022 </v>
   <v>      -0.09609466      -0.07654538      -0.01916971 </v>
   <v>       0.53427401      -1.05841472      -0.51980147 </v>
   <v>      -0.51467752       1.21564946      -0.51937124 </v>
   <v>      -0.02466721      -2.85491089      -0.00665493 </v>
   <v>      -0.78397716      -0.55865771      -0.27306943 </v>
   <v>      -0.10096413       0.38507576       0.06315065 </v>
   <v>       0.13808297      -0.41583170       0.09909700 </v>
   <v>       0.52179186       0.63213584       0.10375895 </v>
   <v>       0.50784893       0.94574707       0.48368224 </v>
   <v>       0.28057764       0.34671527       0.25388507 </v>
   <v>       0.48684523       1.18722311       0.50395649 </v>
   <v>      -0.00982067      -0.31070822       0.00269433 </v>
   <v>       0.45053917       1.12911105       0.49270019 </v>
   <v>      -0.09502463      -0.97726061      -0.03422855 </v>
   <v>      -0.37362328      -0.36209451      -0.41036734 </v>
   <v>      -0.66092459      -0.05209328       0.24226089 </v>
   <v>       0.27695274      -0.32036129      -0.23797526 </v>
  </varray>
  <varray name="stress" >
   <v>       6.81326567       0.92699364       0.98958758 </v>
   <v>       0.92699354      12.03481905       0.79008767 </v>
   <v>       0.98958762       0.79008721       3.93907017 </v>
  </varray>
  <energy>
   <i name="e_fr_energy">   -312.17699095 </i>
   <i name="e_wo_entrp">   -312.17699095 </i>
   <i name="e_0_energy">      0.00000000 </i>
  </energy>
  <time name="totalsc"> 1017.48 1019.00</time>
 </calculation>
 <calculation>
  <scstep>
   <time name="dav">   61.72   62.06</time>
   <time name="total">   62.51   62.85</time>
   <energy>
    <i name="alphaZ">   1087.81496143 </i>
    <i name="ewald"> -31015.04642852 </i>
    <i name="hartreedc"> -12856.97418597 </i>
    <i name="XCdc">   1419.99512611 </i>
    <i name="pawpsdc">  44222.39541898 </i>
    <i name="pawaedc"> -43703.60054316 </i>
    <i name="eentropy">      0.00000000 </i>
    <i name="bandstr">  -4242.96376991 </i>
    <i name="atom">  44791.06186932 </i>
    <i name="e_fr_energy">   -297.31755172 </i>
    <i name="e_wo_entrp">   -297.31755172 </i>
    <i name="e_0_energy">   -297.31755172 </i>
   </energy>
  </scstep>
  <scstep>
   <time name="dav">   68.57   68.87</time>
   <time name="total">   69.37   69.66</time>
   <energy>
    <i name="e_fr_energy">   -297.36376989 </i>
    <i name="e_wo_entrp">   -297.36376989 </i>
    <i name="e_0_energy">   -297.36376989 </i>
   </energy>
  </scstep>
  <scstep>
   <time name="dav">   84.04   84.45</time>
   <time name="total">   84.82   85.24</time>
   <energy>
    <i name="e_fr_energy">   -297.36061345 </i>
    <i name="e_wo_entrp">   -297.36061345 </i>
    <i name="e_0_energy">   -297.36061345 </i>
   </energy>
  </scstep>
  <scstep>
   <time name="dav">   75.97   76.29</time>
   <time name="total">   76.76   77.09</time>
   <energy>
    <i name="e_fr_energy">   -297.35848641 </i>
    <i name="e_wo_entrp">   -297.35848641 </i>
    <i name="e_0_energy">   -297.35848641 </i>
   </energy>
  </scstep>
  <scstep>
   <time name="dav">   80.27   80.67</time>
   <time name="total">   81.06   81.47</time>
   <energy>
    <i name="e_fr_energy">   -297.35840473 </i>
    <i name="e_wo_entrp">   -297.35840473 </i>
    <i name="e_0_energy">   -297.35840473 </i>
   </energy>
  </scstep>
  <scstep>
   <time name="dav">   69.79   70.03</time>
   <time name="total">   70.58   70.83</time>
   <energy>
    <i name="e_fr_energy">   -297.35838190 </i>
    <i name="e_wo_entrp">   -297.35838190 </i>
    <i name="e_0_energy">   -297.35838190 </i>
   </energy>
  </scstep>
  <scstep>
   <time name="dav">   80.57   80.82</time>
   <time name="total">   81.36   81.61</time>
   <energy>
    <i name="e_fr_energy">   -297.35835460 </i>
    <i name="e_wo_entrp">   -297.35835460 </i>
    <i name="e_0_energy">   -297.35835460 </i>
   </energy>
  </scstep>
  <scstep>
   <time name="dav">   72.33   72.55</time>
   <time name="total">   73.12   73.34</time>
   <energy>
    <i name="e_fr_energy">   -297.35834610 </i>
    <i name="e_wo_entrp">   -297.35834610 </i>
    <i name="e_0_energy">   -297.35834610 </i>
   </energy>
  </scstep>
  <scstep>
   <time name="dav">   77.46   77.72</time>
   <time name="total">   78.26   78.51</time>
   <energy>
    <i name="e_fr_energy">   -297.35834607 </i>
    <i name="e_wo_entrp">   -297.35834607 </i>
    <i name="e_0_energy">   -297.35834607 </i>
   </energy>
  </scstep>
  <scstep>
   <time name="dav">   54.94   55.10</time>
   <time name="total">   55.01   55.18</time>
   <energy>
    <i name="alphaZ">   1087.81496143 </i>
    <i name="ewald"> -31015.04642852 </i>
    <i name="hartreedc"> -12874.48964563 </i>
    <i name="XCdc">   1420.78578882 </i>
    <i name="pawpsdc">  44164.50156551 </i>
    <i name="pawaedc"> -43645.11594058 </i>
    <i name="eentropy">      0.00000000 </i>
    <i name="bandstr">  -4226.87051707 </i>
    <i name="atom">  44791.06186932 </i>
    <i name="e_fr_energy">   -297.35834671 </i>
    <i name="e_wo_entrp">   -297.35834671 </i>
    <i name="e_0_energy">   -297.35834671 </i>
   </energy>
  </scstep>
  <structure>
   <crystal>
    <varray name="basis" >
     <v>      11.13441226      -0.00351435      -0.01132943 </v>
     <v>      -0.00301011       9.50811241      -0.00210998 </v>
     <v>      -0.01133338      -0.00246430      11.15662157 </v>
    </varray>
    <i name="volume">   1181.11937280 </i>
    <varray name="rec_basis" >
     <v>       0.08981176       0.00002845       0.00009124 </v>
     <v>       0.00003322       0.10517336       0.00002326 </v>
     <v>       0.00009121       0.00001992       0.08963297 </v>
    </varray>
   </crystal>
   <varray name="positions" >
    <v>       0.37295410      -0.00017342       0.43477699 </v>
    <v>       0.12893596       0.00009462       0.18836208 </v>
    <v>       0.62296855       0.99901253       0.43545552 </v>
    <v>       0.62027728       0.99957083       0.18651994 </v>
    <v>       0.12601021       0.99900990       0.93655989 </v>
    <v>       0.37476890       0.00048878       0.93906266 </v>
    <v>       0.12337267       0.99955860       0.68537386 </v>
    <v>       0.37189671      -0.00008349       0.68632786 </v>
    <v>       0.62479415       0.00070734       0.93833311 </v>
    <v>       0.87590179      -0.00010681       0.93342227 </v>
    <v>       0.88023909       0.00068162       0.44385665 </v>
    <v>       0.87601110      -0.00029447       0.18403068 </v>
    <v>       0.62730013       0.00039027       0.68774020 </v>
    <v>       0.00200764       0.29998464       0.06200273 </v>
    <v>       0.25091226       0.70926955       0.06349245 </v>
    <v>       0.25033365       0.28665877       0.31278289 </v>
    <v>       0.49766509       0.70890130       0.31198038 </v>
    <v>       0.49822682       0.29089546       0.06361326 </v>
    <v>       0.74934812       0.69988733       0.06207622 </v>
    <v>       0.74866379       0.30450928       0.31274033 </v>
    <v>       0.00299256       0.69990118       0.31363168 </v>
    <v>       0.00181858       0.29079708       0.56344578 </v>
    <v>       0.24941412       0.70916530       0.56208656 </v>
    <v>       0.24954417       0.29528374       0.81283846 </v>
    <v>       0.49834506       0.70018995       0.81352319 </v>
    <v>       0.49817962       0.29997808       0.56207587 </v>
    <v>       0.75093981       0.70031297       0.56370419 </v>
    <v>       0.75097746       0.29541880       0.81267862 </v>
    <v>       0.00062863       0.70912801       0.81210687 </v>
    <v>       0.24924056       0.32772461       0.06198500 </v>
    <v>      -0.00140139       0.67266065       0.06374496 </v>
    <v>       0.50195677       0.32740603       0.31358411 </v>
    <v>       0.24924409       0.67233077       0.31283768 </v>
    <v>       0.75088710       0.32701214       0.06359943 </v>
    <v>       0.50138096       0.67257943       0.06215034 </v>
    <v>       0.99767362       0.32690018       0.31209726 </v>
    <v>       0.75089598       0.67324219       0.31280157 </v>
    <v>       0.25087802       0.32773300       0.56374114 </v>
    <v>      -0.00138154       0.67280941       0.56195452 </v>
    <v>       0.50066246       0.32738761       0.81199166 </v>
    <v>       0.25069092       0.67205409       0.81284672 </v>
    <v>       0.74933705       0.32679913       0.56227923 </v>
    <v>       0.50143330       0.67265738       0.56370755 </v>
    <v>       0.99943108       0.32748922       0.81364719 </v>
    <v>       0.74909324       0.67303294       0.81277562 </v>
    <v>       0.50321553       0.08114790       0.05981448 </v>
    <v>       0.24715072       0.91833073       0.05988115 </v>
    <v>       0.24966936       0.08542808       0.31239720 </v>
    <v>      -0.00723981       0.92626721       0.30972938 </v>
    <v>       0.99682038       0.07422574       0.06489570 </v>
    <v>       0.75224671       0.92621851       0.06492564 </v>
    <v>       0.75402218       0.07052943       0.31237308 </v>
    <v>       0.50394964       0.91901097       0.31511560 </v>
    <v>       0.50288156       0.07423383       0.56482855 </v>
    <v>       0.25271084       0.91834832       0.56512711 </v>
    <v>       0.25068285       0.07824223       0.81244512 </v>
    <v>       0.00175306       0.91860136       0.81532944 </v>
    <v>       0.99693258       0.08179395       0.55990957 </v>
    <v>       0.74712476       0.92557242       0.55946598 </v>
    <v>       0.74546601       0.07740232       0.81286702 </v>
    <v>       0.50255339       0.92559047       0.81001979 </v>
   </varray>
  </structure>
  <varray name="forces" >
   <v>      -0.40231530      -0.05011791      -0.33501024 </v>
   <v>       0.67971710       0.02876351       0.32990008 </v>
   <v>      -0.27719700      -0.09994931      -0.28012669 </v>
   <v>      -0.61245380      -0.03947037       0.01298506 </v>
   <v>       0.05466989      -0.10717697      -0.00027244 </v>
   <v>      -0.05531815       0.04171005       0.33282140 </v>
   <v>      -0.25997570      -0.03677215      -0.30215577 </v>
   <v>      -0.34272222      -0.02573443      -0.07466386 </v>
   <v>      -0.07091249       0.11801358       0.27771104 </v>
   <v>       0.02677495      -0.03405145      -0.60751070 </v>
   <v>       0.34336077      -0.08147547       0.63349188 </v>
   <v>      -0.04920977      -0.01506826      -0.12100888 </v>
   <v>       0.43367514       0.02230910      -0.01250117 </v>
   <v>       0.19458370       0.12570558      -0.03425556 </v>
   <v>       0.08975592      -0.75203118       0.07302534 </v>
   <v>       0.01185907       1.78367223      -0.00195072 </v>
   <v>      -0.20105465      -0.54775563      -0.09179374 </v>
   <v>      -0.24167181       0.60723029       0.09888580 </v>
   <v>      -0.05135431      -0.04988119      -0.00679660 </v>
   <v>      -0.07019524       0.05875915      -0.02755444 </v>
   <v>       0.28989962       0.02496216       0.03389072 </v>
   <v>       0.23512225       0.85268781       0.04518405 </v>
   <v>      -0.04857240      -0.75443071      -0.07959534 </v>
   <v>       0.03284736       0.32841607       0.00267896 </v>
   <v>      -0.21211131      -0.09312562       0.00836323 </v>
   <v>      -0.21232084       0.07444130      -0.02682254 </v>
   <v>       0.01089901      -0.09850254       0.02969335 </v>
   <v>       0.10422537       0.16454477      -0.01280316 </v>
   <v>       0.08271580      -0.69072571      -0.04680789 </v>
   <v>      -0.13079669       0.14874206      -0.14722816 </v>
   <v>      -0.19683841      -0.22133060       0.12627250 </v>
   <v>       0.27221113       0.11374481       0.09987623 </v>
   <v>      -0.10650986      -0.08910854      -0.00282839 </v>
   <v>       0.10573178       0.17555180       0.07777055 </v>
   <v>       0.18931846      -0.09547610      -0.10484789 </v>
   <v>      -0.30613268       0.17213058      -0.08731446 </v>
   <v>       0.11533264      -0.24714947      -0.01131575 </v>
   <v>       0.11422574       0.14874423       0.14664560 </v>
   <v>      -0.20767672      -0.02356376      -0.14288232 </v>
   <v>       0.10706726       0.23227423      -0.12131223 </v>
   <v>       0.09986570      -0.24640113      -0.00274336 </v>
   <v>      -0.06710705       0.11354563      -0.04649724 </v>
   <v>       0.18913629      -0.22798980       0.12042090 </v>
   <v>      -0.06261719       0.09872217       0.11192521 </v>
   <v>      -0.11321370      -0.07330826      -0.01981319 </v>
   <v>       0.57435605      -0.78390604      -0.54034478 </v>
   <v>      -0.53636964       0.89311176      -0.53676995 </v>
   <v>      -0.03388677      -2.01401392      -0.00759876 </v>
   <v>      -0.95191441      -0.38351850      -0.34628588 </v>
   <v>      -0.20689734       0.24141360       0.15149197 </v>
   <v>       0.21186096      -0.26176094       0.17918486 </v>
   <v>       0.59460876       0.41329452       0.08672865 </v>
   <v>       0.56869709       0.69591895       0.51105406 </v>
   <v>       0.35211273       0.21323871       0.30516625 </v>
   <v>       0.51795617       0.87072661       0.52781946 </v>
   <v>       0.01036424      -0.25999635       0.00168135 </v>
   <v>       0.44733141       0.83078905       0.52247652 </v>
   <v>      -0.19745332      -0.69837606      -0.13197008 </v>
   <v>      -0.42200033      -0.23153963      -0.46120471 </v>
   <v>      -0.74129772      -0.06656210       0.21888581 </v>
   <v>       0.32781446      -0.19289419      -0.29344394 </v>
  </varray>
  <varray name="stress" >
   <v>       4.74948534       0.63230315       0.59251828 </v>
   <v>       0.63230269       6.88656433       0.53447330 </v>
   <v>       0.59251825       0.53447334       2.68669150 </v>
  </varray>
  <energy>
   <i name="e_fr_energy">   -312.21478671 </i>
   <i name="e_wo_entrp">   -312.21478671 </i>
   <i name="e_0_energy">      0.00000000 </i>
  </energy>
  <time name="totalsc">  837.30  840.52</time>
 </calculation>
 <calculation>
  <scstep>
   <time name="dav">   61.62   61.82</time>
   <time name="total">   62.41   62.61</time>
   <energy>
    <i name="alphaZ">   1084.36721072 </i>
    <i name="ewald"> -31101.48742757 </i>
    <i name="hartreedc"> -12751.02489031 </i>
    <i name="XCdc">   1418.22838127 </i>
    <i name="pawpsdc">  44164.45028849 </i>
    <i name="pawaedc"> -43645.06410177 </i>
    <i name="eentropy">      0.00000000 </i>
    <i name="bandstr">  -4257.36664457 </i>
    <i name="atom">  44791.06186932 </i>
    <i name="e_fr_energy">   -296.83531443 </i>
    <i name="e_wo_entrp">   -296.83531443 </i>
    <i name="e_0_energy">   -296.83531443 </i>
   </energy>
  </scstep>
  <scstep>
   <time name="dav">   69.91   70.03</time>
   <time name="total">   70.70   70.82</time>
   <energy>
    <i name="e_fr_energy">   -297.97440223 </i>
    <i name="e_wo_entrp">   -297.97440223 </i>
    <i name="e_0_energy">   -297.97440223 </i>
   </energy>
  </scstep>
  <scstep>
   <time name="dav">   88.99   89.09</time>
   <time name="total">   89.78   89.88</time>
   <energy>
    <i name="e_fr_energy">   -297.97080366 </i>
    <i name="e_wo_entrp">   -297.97080366 </i>
    <i name="e_0_energy">   -297.97080366 </i>
   </energy>
  </scstep>
  <scstep>
   <time name="dav">   69.72   69.77</time>
   <time name="total">   70.52   70.57</time>
   <energy>
    <i name="e_fr_energy">   -297.94838521 </i>
    <i name="e_wo_entrp">   -297.94838521 </i>
    <i name="e_0_energy">   -297.94838521 </i>
   </energy>
  </scstep>
  <scstep>
   <time name="dav">   73.26   73.29</time>
   <time name="total">   74.06   74.08</time>
   <energy>
    <i name="e_fr_energy">   -297.93696712 </i>
    <i name="e_wo_entrp">   -297.93696712 </i>
    <i name="e_0_energy">   -297.93696712 </i>
   </energy>
  </scstep>
  <scstep>
   <time name="dav">   74.33   74.39</time>
   <time name="total">   75.12   75.18</time>
   <energy>
    <i name="e_fr_energy">   -297.93702763 </i>
    <i name="e_wo_entrp">   -297.93702763 </i>
    <i name="e_0_energy">   -297.93702763 </i>
   </energy>
  </scstep>
  <scstep>
   <time name="dav">   78.34   78.47</time>
   <time name="total">   79.14   79.26</time>
   <energy>
    <i name="e_fr_energy">   -297.93709727 </i>
    <i name="e_wo_entrp">   -297.93709727 </i>
    <i name="e_0_energy">   -297.93709727 </i>
   </energy>
  </scstep>
  <scstep>
   <time name="dav">   78.14   78.43</time>
   <time name="total">   78.94   79.22</time>
   <energy>
    <i name="e_fr_energy">   -297.93705436 </i>
    <i name="e_wo_entrp">   -297.93705436 </i>
    <i name="e_0_energy">   -297.93705436 </i>
   </energy>
  </scstep>
  <scstep>
   <time name="dav">   79.31   79.56</time>
   <time name="total">   80.10   80.36</time>
   <energy>
    <i name="e_fr_energy">   -297.93705491 </i>
    <i name="e_wo_entrp">   -297.93705491 </i>
    <i name="e_0_energy">   -297.93705491 </i>
   </energy>
  </scstep>
  <scstep>
   <time name="dav">   70.70   70.94</time>
   <time name="total">   71.49   71.73</time>
   <energy>
    <i name="e_fr_energy">   -297.93705870 </i>
    <i name="e_wo_entrp">   -297.93705870 </i>
    <i name="e_0_energy">   -297.93705870 </i>
   </energy>
  </scstep>
  <scstep>
   <time name="dav">   66.24   66.47</time>
   <time name="total">   67.03   67.27</time>
   <energy>
    <i name="e_fr_energy">   -297.93705984 </i>
    <i name="e_wo_entrp">   -297.93705984 </i>
    <i name="e_0_energy">   -297.93705984 </i>
   </energy>
  </scstep>
  <scstep>
   <time name="dav">   57.55   57.85</time>
   <time name="total">   58.35   58.65</time>
   <energy>
    <i name="e_fr_energy">   -297.93706130 </i>
    <i name="e_wo_entrp">   -297.93706130 </i>
    <i name="e_0_energy">   -297.93706130 </i>
   </energy>
  </scstep>
  <scstep>
   <time name="dav">   45.62   45.68</time>
   <time name="total">   45.70   45.76</time>
   <energy>
    <i name="alphaZ">   1084.36721072 </i>
    <i name="ewald"> -31101.48742757 </i>
    <i name="hartreedc"> -12775.38373812 </i>
    <i name="XCdc">   1419.35575923 </i>
    <i name="pawpsdc">  43921.78795451 </i>
    <i name="pawaedc"> -43398.82775939 </i>
    <i name="eentropy">      0.00000000 </i>
    <i name="bandstr">  -4238.81093064 </i>
    <i name="atom">  44791.06186932 </i>
    <i name="e_fr_energy">   -297.93706194 </i>
    <i name="e_wo_entrp">   -297.93706194 </i>
    <i name="e_0_energy">   -297.93706194 </i>
   </energy>
  </scstep>
  <structure>
   <crystal>
    <varray name="basis" >
     <v>      11.14794451      -0.00083767      -0.01183293 </v>
     <v>      -0.00072191       9.52048491      -0.00001182 </v>
     <v>      -0.01184399      -0.00000683      11.16398046 </v>
    </varray>
    <i name="volume">   1184.87474747 </i>
    <varray name="rec_basis" >
     <v>       0.08970274       0.00000680       0.00009517 </v>
     <v>       0.00000789       0.10503667       0.00000007 </v>
     <v>       0.00009508       0.00000012       0.08957389 </v>
    </varray>
   </crystal>
   <varray name="positions" >
    <v>       0.37033260      -0.00055306       0.43257314 </v>
    <v>       0.13344250       0.00033568       0.19031980 </v>
    <v>       0.62088122       0.99820330       0.43373927 </v>
    <v>       0.61605416       0.99927192       0.18643804 </v>
    <v>       0.12647498       0.99816538       0.93644215 </v>
    <v>       0.37430318       0.00081631       0.94129151 </v>
    <v>       0.12180544       0.99926898       0.68353469 </v>
    <v>       0.36942389      -0.00030797       0.68580607 </v>
    <v>       0.62427173       0.00161997       0.94005470 </v>
    <v>       0.87620397      -0.00038106       0.92956246 </v>
    <v>       0.88352667       0.00047555       0.44916428 </v>
    <v>       0.87633077      -0.00054537       0.18245048 </v>
    <v>       0.63014804       0.00071041       0.68801878 </v>
    <v>       0.00353886       0.30242447       0.06155618 </v>
    <v>       0.25158693       0.70724220       0.06405791 </v>
    <v>       0.25056022       0.29224403       0.31276189 </v>
    <v>       0.49598214       0.70774311       0.31127495 </v>
    <v>       0.49648845       0.29226932       0.06433117 </v>
    <v>       0.74883487       0.69777406       0.06176986 </v>
    <v>       0.74791274       0.30833269       0.31259417 </v>
    <v>       0.00539629       0.69816462       0.31408281 </v>
    <v>       0.00345039       0.29334859       0.56387811 </v>
    <v>       0.24893741       0.70708576       0.56147748 </v>
    <v>       0.24956024       0.29694318       0.81285702 </v>
    <v>       0.49687299       0.69797740       0.81382152 </v>
    <v>       0.49654650       0.30216070       0.56168471 </v>
    <v>       0.75129163       0.69812125       0.56416643 </v>
    <v>       0.75183607       0.29631948       0.81257248 </v>
    <v>       0.00126357       0.70734982       0.81164114 </v>
    <v>       0.24838177       0.32882142       0.06103394 </v>
    <v>      -0.00278028       0.67135009       0.06460902 </v>
    <v>       0.50386529       0.32821053       0.31428026 </v>
    <v>       0.24852742       0.67154895       0.31281642 </v>
[...]
       <r>    8.7548    0.0000 </r>
       <r>    8.8439    0.0000 </r>
       <r>    8.8841    0.0000 </r>
       <r>    8.9005    0.0000 </r>
       <r>    9.0017    0.0000 </r>
      </set>
     </set>
    </set>
   </array>
  </eigenvalues>
  <separator name="orbital magnetization" >
   <v name="MAGDIPOLOUT">      0.00000000      0.00000000      0.00000000</v>
  </separator>
  <dos>
   <i name="efermi">      4.29352103 </i>
   <total>
    <array>
     <dimension dim="1">gridpoints</dimension>
     <dimension dim="2">spin</dimension>
     <field>energy</field>
     <field>total</field>
     <field>integrated</field>
     <set>
      <set comment="spin 1">
       <r>   -42.3179     0.0000     0.0000 </r>
       <r>   -42.1367     0.0000     0.0000 </r>
       <r>   -41.9555     0.0000     0.0000 </r>
       <r>   -41.7743     0.0000     0.0000 </r>
       <r>   -41.5931     0.0000     0.0000 </r>
       <r>   -41.4120     0.0000     0.0000 </r>
       <r>   -41.2308     0.0000     0.0000 </r>
       <r>   -41.0496     0.0000     0.0000 </r>
       <r>   -40.8684     0.0000     0.0000 </r>
       <r>   -40.6872     0.0000     0.0000 </r>
       <r>   -40.5060     0.0000     0.0000 </r>
       <r>   -40.3248     0.0000     0.0000 </r>
       <r>   -40.1436     0.0000     0.0000 </r>
       <r>   -39.9624     0.0000     0.0000 </r>
       <r>   -39.7812     0.0000     2.0000 </r>
       <r>   -39.6000     0.0000     8.0000 </r>
       <r>   -39.4189     0.0000    14.0000 </r>
       <r>   -39.2377     0.0000    18.0000 </r>
       <r>   -39.0565     0.0000    20.0000 </r>
       <r>   -38.8753     0.0000    20.0000 </r>
       <r>   -38.6941     0.0000    20.0000 </r>
       <r>   -38.5129     0.0000    20.0000 </r>
       <r>   -38.3317     0.0000    20.0000 </r>
       <r>   -38.1505     0.0000    20.0000 </r>
       <r>   -37.9693     0.0000    20.0000 </r>
       <r>   -37.7881     0.0000    20.0000 </r>
       <r>   -37.6069     0.0000    20.0000 </r>
       <r>   -37.4257     0.0000    20.0000 </r>
       <r>   -37.2446     0.0000    20.0000 </r>
       <r>   -37.0634     0.0000    20.0000 </r>
       <r>   -36.8822     0.0000    20.0000 </r>
       <r>   -36.7010     0.0000    20.0000 </r>
       <r>   -36.5198     0.0000    20.0000 </r>
       <r>   -36.3386     0.0000    20.0000 </r>
       <r>   -36.1574     0.0000    20.0000 </r>
       <r>   -35.9762     0.0000    20.0000 </r>
       <r>   -35.7950     0.0000    20.0000 </r>
       <r>   -35.6138     0.0000    20.0000 </r>
       <r>   -35.4326     0.0000    20.0000 </r>
       <r>   -35.2515     0.0000    20.0000 </r>
       <r>   -35.0703     0.0000    20.0000 </r>
       <r>   -34.8891     0.0000    20.0000 </r>
       <r>   -34.7079     0.0000    20.0000 </r>
       <r>   -34.5267     0.0000    20.0000 </r>
       <r>   -34.3455     0.0000    20.0000 </r>
       <r>   -34.1643     0.0000    20.0000 </r>
       <r>   -33.9831     0.0000    20.0000 </r>
       <r>   -33.8019     0.0000    20.0000 </r>
       <r>   -33.6207     0.0000    20.0000 </r>
       <r>   -33.4395     0.0000    20.0000 </r>
       <r>   -33.2584     0.0000    20.0000 </r>
       <r>   -33.0772     0.0000    20.0000 </r>
       <r>   -32.8960     0.0000    20.0000 </r>
       <r>   -32.7148     0.0000    20.0000 </r>
       <r>   -32.5336     0.0000    20.0000 </r>
       <r>   -32.3524     0.0000    20.0000 </r>
       <r>   -32.1712     0.0000    20.0000 </r>
       <r>   -31.9900     0.0000    20.0000 </r>
       <r>   -31.8088     0.0000    20.0000 </r>
       <r>   -31.6276     0.0000    20.0000 </r>
       <r>   -31.4464     0.0000    20.0000 </r>
       <r>   -31.2652     0.0000    20.0000 </r>
       <r>   -31.0841     0.0000    20.0000 </r>
       <r>   -30.9029     0.0000    20.0000 </r>
       <r>   -30.7217     0.0000    20.0000 </r>
       <r>   -30.5405     0.0000    20.0000 </r>
       <r>   -30.3593     0.0000    20.0000 </r>
       <r>   -30.1781     0.0000    20.0000 </r>
       <r>   -29.9969     0.0000    20.0000 </r>
       <r>   -29.8157     0.0000    20.0000 </r>
       <r>   -29.6345     0.0000    20.0000 </r>
       <r>   -29.4533     0.0000    20.0000 </r>
       <r>   -29.2721     0.0000    20.0000 </r>
       <r>   -29.0910     0.0000    20.0000 </r>
       <r>   -28.9098     0.0000    20.0000 </r>
       <r>   -28.7286     0.0000    20.0000 </r>
       <r>   -28.5474     0.0000    20.0000 </r>
       <r>   -28.3662     0.0000    20.0000 </r>
       <r>   -28.1850     0.0000    20.0000 </r>
       <r>   -28.0038     0.0000    20.0000 </r>
       <r>   -27.8226     0.0000    20.0000 </r>
       <r>   -27.6414     0.0000    20.0000 </r>
       <r>   -27.4602     0.0000    20.0000 </r>
       <r>   -27.2790     0.0000    20.0000 </r>
       <r>   -27.0979     0.0000    20.0000 </r>
       <r>   -26.9167     0.0000    20.0000 </r>
       <r>   -26.7355     0.0000    20.0000 </r>
       <r>   -26.5543     0.0000    20.0000 </r>
       <r>   -26.3731     0.0000    20.0000 </r>
       <r>   -26.1919     0.0000    20.0000 </r>
       <r>   -26.0107     0.0000    20.0000 </r>
       <r>   -25.8295     0.0000    20.0000 </r>
       <r>   -25.6483     0.0000    20.0000 </r>
       <r>   -25.4671     0.0000    20.0000 </r>
       <r>   -25.2859     0.0000    20.0000 </r>
       <r>   -25.1047     0.0000    20.0000 </r>
       <r>   -24.9236     0.0000    20.0000 </r>
       <r>   -24.7424     0.0000    20.0000 </r>
       <r>   -24.5612     0.0000    20.0000 </r>
       <r>   -24.3800     0.0000    20.0000 </r>
       <r>   -24.1988     0.0000    20.0000 </r>
       <r>   -24.0176     0.0000    20.0000 </r>
       <r>   -23.8364     0.0000    20.0000 </r>
       <r>   -23.6552     0.0000    20.0000 </r>
       <r>   -23.4740     0.0000    20.0000 </r>
       <r>   -23.2928     0.0000    20.0000 </r>
       <r>   -23.1116     0.0000    20.0000 </r>
       <r>   -22.9305     0.0000    20.0000 </r>
       <r>   -22.7493     0.0000    20.0000 </r>
       <r>   -22.5681     0.0000    20.0000 </r>
       <r>   -22.3869     0.0000    20.0000 </r>
       <r>   -22.2057     0.0000    20.0000 </r>
       <r>   -22.0245     0.0000    20.0000 </r>
       <r>   -21.8433     0.0000    20.0000 </r>
       <r>   -21.6621     0.0000    20.0000 </r>
       <r>   -21.4809     0.0000    20.0000 </r>
       <r>   -21.2997     0.0000    20.0000 </r>
       <r>   -21.1185     0.0000    20.0000 </r>
       <r>   -20.9374     0.0000    20.0000 </r>
       <r>   -20.7562     0.0000    20.0000 </r>
       <r>   -20.5750     0.0000    20.0000 </r>
       <r>   -20.3938     0.0000    20.0000 </r>
       <r>   -20.2126     0.0000    20.0000 </r>
       <r>   -20.0314     0.0000    20.0000 </r>
       <r>   -19.8502     0.0000    20.0000 </r>
       <r>   -19.6690     0.0000    20.0000 </r>
       <r>   -19.4878     0.0000    20.0000 </r>
       <r>   -19.3066     0.0000    20.0000 </r>
       <r>   -19.1254     0.0000    20.0000 </r>
       <r>   -18.9442     0.0000    20.0000 </r>
       <r>   -18.7631     0.0000    26.0000 </r>
       <r>   -18.5819     0.0000    86.0000 </r>
       <r>   -18.4007     0.0000   162.0000 </r>
       <r>   -18.2195     0.0000   180.0000 </r>
       <r>   -18.0383     0.0000   180.0000 </r>
       <r>   -17.8571     0.0000   180.0000 </r>
       <r>   -17.6759     0.0000   180.0000 </r>
       <r>   -17.4947     0.0000   180.0000 </r>
       <r>   -17.3135     0.0000   180.0000 </r>
       <r>   -17.1323     0.0000   180.0000 </r>
       <r>   -16.9511     0.0000   180.0000 </r>
       <r>   -16.7700     0.0000   180.0000 </r>
       <r>   -16.5888     0.0000   180.0000 </r>
       <r>   -16.4076     0.0000   180.0000 </r>
       <r>   -16.2264     0.0000   180.0000 </r>
       <r>   -16.0452     0.0000   180.0000 </r>
       <r>   -15.8640     0.0000   180.0000 </r>
       <r>   -15.6828     0.0000   180.0000 </r>
       <r>   -15.5016     0.0000   180.0000 </r>
       <r>   -15.3204     0.0000   180.0000 </r>
       <r>   -15.1392     0.0000   180.0000 </r>
       <r>   -14.9580     0.0000   180.0000 </r>
       <r>   -14.7769     0.0000   180.0000 </r>
       <r>   -14.5957     0.0000   180.0000 </r>
       <r>   -14.4145     0.0000   180.0000 </r>
       <r>   -14.2333     0.0000   180.0000 </r>
       <r>   -14.0521     0.0000   180.0000 </r>
       <r>   -13.8709     0.0000   180.0000 </r>
       <r>   -13.6897     0.0000   180.0000 </r>
       <r>   -13.5085     0.0000   180.0000 </r>
       <r>   -13.3273     0.0000   180.0000 </r>
       <r>   -13.1461     0.0000   182.0000 </r>
       <r>   -12.9649     0.0000   184.0000 </r>
       <r>   -12.7837     0.0000   188.0000 </r>
       <r>   -12.6026     0.0000   200.0000 </r>
       <r>   -12.4214     0.0000   212.0000 </r>
       <r>   -12.2402     0.0000   212.0000 </r>
       <r>   -12.0590     0.0000   212.0000 </r>
       <r>   -11.8778     0.0000   212.0000 </r>
       <r>   -11.6966     0.0000   212.0000 </r>
       <r>   -11.5154     0.0000   212.0000 </r>
       <r>   -11.3342     0.0000   212.0000 </r>
       <r>   -11.1530     0.0000   212.0000 </r>
       <r>   -10.9718     0.0000   212.0000 </r>
       <r>   -10.7906     0.0000   212.0000 </r>
       <r>   -10.6095     0.0000   212.0000 </r>
       <r>   -10.4283     0.0000   212.0000 </r>
       <r>   -10.2471     0.0000   212.0000 </r>
       <r>   -10.0659     0.0000   212.0000 </r>
       <r>    -9.8847     0.0000   212.0000 </r>
       <r>    -9.7035     0.0000   212.0000 </r>
       <r>    -9.5223     0.0000   212.0000 </r>
       <r>    -9.3411     4.5453   212.1114 </r>
       <r>    -9.1599     6.6875   213.7968 </r>
       <r>    -8.9787     7.7343   215.6574 </r>
       <r>    -8.7975     9.9278   216.3745 </r>
       <r>    -8.6164     7.8256   219.9188 </r>
       <r>    -8.4352    35.9775   223.5244 </r>
       <r>    -8.2540    13.7226   227.3911 </r>
       <r>    -8.0728    27.2461   228.6879 </r>
       <r>    -7.8916    29.0686   235.5308 </r>
       <r>    -7.7104     0.4571   239.9998 </r>
       <r>    -7.5292    23.8634   242.4479 </r>
       <r>    -7.3480     0.0000   244.0000 </r>
       <r>    -7.1668     0.0000   244.0000 </r>
       <r>    -6.9856     0.0000   244.0000 </r>
       <r>    -6.8044     0.0000   244.0000 </r>
       <r>    -6.6232     0.0000   244.0000 </r>
       <r>    -6.4421     0.0000   244.0000 </r>
       <r>    -6.2609     4.3080   244.1486 </r>
       <r>    -6.0797    35.7103   247.1493 </r>
       <r>    -5.8985    10.8167   251.8714 </r>
       <r>    -5.7173    30.6979   254.6752 </r>
       <r>    -5.5361    28.4510   259.7355 </r>
       <r>    -5.3549    24.8171   264.1709 </r>
       <r>    -5.1737    10.3893   266.9908 </r>
       <r>    -4.9925     1.8391   268.0502 </r>
       <r>    -4.8113    10.9967   269.2382 </r>
       <r>    -4.6301    10.0364   271.5034 </r>
       <r>    -4.4490     4.3525   272.5991 </r>
       <r>    -4.2678     7.2258   273.6482 </r>
       <r>    -4.0866     5.8997   275.1699 </r>
       <r>    -3.9054     1.9085   275.7301 </r>
       <r>    -3.7242     0.6727   275.9639 </r>
       <r>    -3.5430     0.0000   276.0000 </r>
       <r>    -3.3618     0.0000   276.0000 </r>
       <r>    -3.1806     0.0000   276.0000 </r>
       <r>    -2.9994     0.0000   276.0000 </r>
       <r>    -2.8182     0.0000   276.0000 </r>
       <r>    -2.6370     0.0000   276.0000 </r>
       <r>    -2.4559     0.0000   276.0000 </r>
       <r>    -2.2747     0.0000   276.0000 </r>
       <r>    -2.0935     0.0000   276.0000 </r>
       <r>    -1.9123     0.0000   276.0000 </r>
       <r>    -1.7311     0.0000   276.0000 </r>
       <r>    -1.5499     0.0000   276.0000 </r>
       <r>    -1.3687     0.0055   276.0000 </r>
       <r>    -1.1875     7.6269   276.5736 </r>
       <r>    -1.0063     6.0746   277.9970 </r>
       <r>    -0.8251    10.3632   279.2632 </r>
       <r>    -0.6439    12.1147   281.5848 </r>
       <r>    -0.4627     9.9729   283.2912 </r>
       <r>    -0.2816    24.7236   286.4701 </r>
       <r>    -0.1004    25.9199   291.2895 </r>
       <r>     0.0808    40.6532   298.3747 </r>
       <r>     0.2620    35.8964   304.7766 </r>
       <r>     0.4432    35.0942   312.5999 </r>
       <r>     0.6244    38.6852   318.5534 </r>
       <r>     0.8056    31.1298   324.7860 </r>
       <r>     0.9868    40.9502   331.2607 </r>
       <r>     1.1680    51.6705   339.3407 </r>
       <r>     1.3492    45.0673   347.9173 </r>
       <r>     1.5304    46.3954   355.3386 </r>
       <r>     1.7115    46.2608   364.3855 </r>
       <r>     1.8927    51.4156   372.7616 </r>
       <r>     2.0739    40.5991   381.6485 </r>
       <r>     2.2551    47.8215   389.9915 </r>
       <r>     2.4363    62.0670   399.6123 </r>
       <r>     2.6175    67.2160   412.5831 </r>
       <r>     2.7987    69.3291   424.7861 </r>
       <r>     2.9799    82.6996   437.0595 </r>
       <r>     3.1611    47.1290   447.2303 </r>
       <r>     3.3423    24.1774   453.1810 </r>
       <r>     3.5235    40.5464   459.8376 </r>
       <r>     3.7046    16.6054   464.3285 </r>
       <r>     3.8858     9.4859   466.6137 </r>
       <r>     4.0670     3.2906   467.7710 </r>
       <r>     4.2482     0.0511   467.9996 </r>
       <r>     4.4294     0.0000   468.0000 </r>
       <r>     4.6106     0.0000   468.0000 </r>
       <r>     4.7918     0.0000   468.0000 </r>
       <r>     4.9730     0.0000   468.0000 </r>
       <r>     5.1542     0.0224   468.0001 </r>
       <r>     5.3354     3.4351   468.2254 </r>
       <r>     5.5166     9.0164   469.3531 </r>
       <r>     5.6978     9.8466   471.2198 </r>
       <r>     5.8789    19.9211   474.2854 </r>
       <r>     6.0601    14.0636   477.5815 </r>
       <r>     6.2413    12.9290   480.0092 </r>
       <r>     6.4225    13.3998   482.3630 </r>
       <r>     6.6037    14.6246   484.9021 </r>
       <r>     6.7849    16.0491   487.6697 </r>
       <r>     6.9661    18.8337   490.8068 </r>
       <r>     7.1473    22.9987   494.5935 </r>
       <r>     7.3285    25.1165   498.9014 </r>
       <r>     7.5097    38.8807   504.8208 </r>
       <r>     7.6909    30.0461   510.7629 </r>
       <r>     7.8720    35.1014   517.0001 </r>
       <r>     8.0532    33.4962   523.3513 </r>
       <r>     8.2344    26.4129   528.9056 </r>
       <r>     8.4156    25.7127   533.6434 </r>
       <r>     8.5968    32.1202   538.7924 </r>
       <r>     8.7780    36.0984   545.0042 </r>
       <r>     8.9592    35.6381   551.4862 </r>
       <r>     9.1404    20.7683   556.5143 </r>
       <r>     9.3216     9.0419   559.1788 </r>
       <r>     9.5028     1.1301   559.9725 </r>
       <r>     9.6840     0.0000   560.0000 </r>
       <r>     9.8652     0.0000   560.0000 </r>
       <r>    10.0463     0.0000   560.0000 </r>
       <r>    10.2275     0.0000   560.0000 </r>
       <r>    10.4087     0.0000   560.0000 </r>
       <r>    10.5899     0.0000   560.0000 </r>
       <r>    10.7711     0.0000   560.0000 </r>
       <r>    10.9523     0.0000   560.0000 </r>
       <r>    11.1335     0.0000   560.0000 </r>
       <r>    11.3147     0.0000   560.0000 </r>
       <r>    11.4959     0.0000   560.0000 </r>
       <r>    11.6771     0.0000   560.0000 </r>
       <r>    11.8583     0.0000   560.0000 </r>
       <r>    12.0394     0.0000   560.0000 </r>
      </set>
     </set>
    </array>
   </total>
  </dos>
 </calculation>
 <structure name="finalpos" >
  <crystal>
   <varray name="basis" >
    <v>      11.21925560      -0.00466603       0.03347398 </v>
    <v>      -0.00531063       9.52526447       0.04013568 </v>
    <v>       0.03340603       0.04842824      11.17981225 </v>
   </varray>
   <i name="volume">   1194.71327800 </i>
   <varray name="rec_basis" >
    <v>       0.08913329       0.00005082      -0.00026656 </v>
    <v>       0.00004502       0.10498590      -0.00045491 </v>
    <v>      -0.00026704      -0.00037705       0.08944937 </v>
   </varray>
  </crystal>
  <varray name="positions" >
   <v>       0.33993539      -0.02252712       0.42239409 </v>
   <v>       0.22721527      -0.01085939       0.18196339 </v>
   <v>       0.61121687       0.00192470       0.43530386 </v>
   <v>       0.58290008       0.97951113       0.17593405 </v>
   <v>       0.16934845      -0.02833168       0.89812568 </v>
   <v>       0.39105908      -0.00039269       0.93947247 </v>
   <v>       0.09419851       0.97120149       0.64090472 </v>
   <v>       0.37772567       0.00048463       0.69150270 </v>
   <v>       0.63635234       0.00400464       0.94830151 </v>
   <v>       0.91424283       0.03691708       0.89078991 </v>
   <v>       0.86871412      -0.00414166       0.44980520 </v>
   <v>       0.85596271       0.00160258       0.18304371 </v>
   <v>       0.63989696      -0.00102735       0.69122067 </v>
   <v>      -0.00826944       0.30585471       0.06480780 </v>
   <v>       0.24945356       0.69015372       0.06094555 </v>
   <v>       0.25120203       0.30160677       0.31760526 </v>
   <v>       0.49553589       0.69698772       0.31747300 </v>
   <v>       0.49520800       0.29598179       0.06544477 </v>
   <v>       0.74313305       0.69157533       0.06989135 </v>
   <v>       0.74910097       0.31685351       0.31814957 </v>
   <v>      -0.00414064       0.69214426       0.31319967 </v>
   <v>       0.00091637       0.29942212       0.56390896 </v>
   <v>       0.25161344       0.69777630       0.56630913 </v>
   <v>       0.25570915       0.29836405       0.81770803 </v>
   <v>       0.50183866       0.69428857       0.81559666 </v>
   <v>       0.50041681       0.30662296       0.56836178 </v>
   <v>       0.74755808       0.68858472       0.56526150 </v>
   <v>       0.74894035       0.30834566       0.81844579 </v>
   <v>       0.00446796       0.70535039       0.81538077 </v>
   <v>       0.24462089       0.32925491       0.06675517 </v>
   <v>      -0.00703750       0.66845233       0.06466240 </v>
   <v>       0.50034451       0.33353563       0.31946666 </v>
   <v>       0.24157787       0.72744355       0.30934994 </v>
   <v>       0.74393977       0.35587318       0.06814458 </v>
   <v>       0.49573261       0.65489730       0.06631397 </v>
   <v>      -0.00327695       0.35078910       0.31721237 </v>
   <v>       0.74110767       0.63979240       0.31574725 </v>
   <v>       0.24892318       0.33488590       0.56769863 </v>
   <v>      -0.00403050       0.69539236       0.56380078 </v>
   <v>       0.50017746       0.36088485       0.81851569 </v>
   <v>       0.24470919       0.64287817       0.81154989 </v>
   <v>       0.74949973       0.35292814       0.56902963 </v>
   <v>       0.49881629       0.64701252       0.56711392 </v>
   <v>      -0.00353243       0.31927430       0.81767289 </v>
   <v>       0.74579341       0.67323631       0.81328671 </v>
   <v>       0.51122659       0.08308958       0.04577503 </v>
   <v>       0.25647925       0.90401371       0.03319706 </v>
   <v>       0.25653963       0.09178120       0.31528797 </v>
   <v>      -0.05527866       0.90169704       0.31040159 </v>
   <v>       0.95572972       0.09288949       0.05908364 </v>
   <v>       0.72689733       0.91033019       0.08892177 </v>
   <v>       0.76243960       0.09257105       0.32425418 </v>
   <v>       0.50928238       0.91119032       0.32578174 </v>
   <v>       0.52009406       0.08829372       0.58198484 </v>
   <v>       0.26431336       0.91153794       0.58013354 </v>
   <v>       0.28473558       0.08569061       0.81973479 </v>
   <v>       0.03067410       0.91882058       0.81051195 </v>
   <v>       0.98520249       0.08653557       0.55322978 </v>
   <v>       0.73320749       0.91327309       0.55218608 </v>
   <v>       0.73926967       0.08839534       0.81978430 </v>
   <v>       0.51575968       0.91498070       0.80562970 </v>
  </varray>
 </structure>
</modeling>
