<?xml version="1.0" encoding="ISO-8859-1"?>
<modeling>
 <generator>
  <i name="program" type="string">vasp </i>
  <i name="version" type="string">5.4.4.18Apr17-6-g9f103f2a35  </i>
  <i name="subversion" type="string">(build Jul 31 2017 11:33:29) complex            parallel </i>
  <i name="platform" type="string">LinuxIFC </i>
  <i name="date" type="string">2021 09 29 </i>
  <i name="time" type="string">07:09:32 </i>
 </generator>
 <incar>
  <i type="string" name="SYSTEM"> La2O2S</i>
  <i type="string" name="PREC">normal</i>
  <i type="int" name="NELMIN">     4</i>
  <i type="int" name="IBRION">     2</i>
  <i type="int" name="NFREE">    10</i>
  <i name="EDIFF">      0.00000100</i>
  <i name="EDIFFG">     -0.01000000</i>
  <i type="int" name="NSW">     1</i>
  <i type="int" name="ISIF">     2</i>
  <i name="ENCUT">    600.00000000</i>
  <i name="ENAUG">    900.00000000</i>
  <i type="int" name="ISMEAR">    -5</i>
  <i type="logical" name="LWAVE"> F  </i>
  <i type="logical" name="LCHARG"> F  </i>
  <v type="int" name="KPOINT_BSE">    -1     0     0     0</v>
 </incar>
 <structure name="primitive_cell" >
  <crystal>
   <varray name="basis" >
    <v>      11.17850000       0.00000000       0.00000000 </v>
    <v>       0.00000000       9.57460000       0.00000000 </v>
    <v>       0.00000000       0.00000000      11.18240000 </v>
   </varray>
   <i name="volume">   1196.84853820 </i>
   <varray name="rec_basis" >
    <v>       0.08945744       0.00000000       0.00000000 </v>
    <v>       0.00000000       0.10444301       0.00000000 </v>
    <v>       0.00000000       0.00000000       0.08942624 </v>
   </varray>
  </crystal>
  <varray name="positions" >
   <v>       0.12461000      -0.00016000       0.18687000 </v>
   <v>      -0.00013000       0.07798000       0.06246000 </v>
   <v>       0.24987000      -0.07798000       0.06246000 </v>
   <v>       0.00013000      -0.07798000       0.31246000 </v>
   <v>       0.25013000       0.07798000       0.31246000 </v>
   <v>       0.37461000       0.00017000       0.18687000 </v>
   <v>      -0.12539000       0.00017000       0.18687000 </v>
   <v>       0.12539000      -0.00016000      -0.06313000 </v>
   <v>       0.00013000       0.29519000       0.06281000 </v>
   <v>       0.25013000      -0.29519000       0.06281000 </v>
   <v>      -0.00013000      -0.29519000       0.31282000 </v>
   <v>       0.24987000       0.29519000       0.31282000 </v>
   <v>       0.00005000      -0.32677000       0.06286000 </v>
   <v>       0.25005000       0.32677000       0.06286000 </v>
   <v>      -0.00005000       0.32677000       0.31286000 </v>
   <v>       0.24995000      -0.32677000       0.31286000 </v>
   <v>      -0.12461000       0.00017000       0.43687000 </v>
   <v>      -0.12461000       0.00017000      -0.06313000 </v>
   <v>       0.37539000       0.00017000       0.43687000 </v>
   <v>       0.00013000      -0.07798000      -0.18754000 </v>
   <v>      -0.25013000      -0.07798000       0.06246000 </v>
   <v>      -0.24987000       0.07798000       0.31246000 </v>
   <v>       0.25013000       0.07798000      -0.18754000 </v>
   <v>       0.49987000       0.07798000       0.06246000 </v>
   <v>      -0.00013000       0.07798000      -0.43754000 </v>
   <v>      -0.49987000      -0.07798000       0.31246000 </v>
   <v>       0.24987000      -0.07798000      -0.43754000 </v>
   <v>      -0.00013000      -0.29519000      -0.18718000 </v>
   <v>      -0.24987000      -0.29519000       0.06281000 </v>
   <v>       0.24987000       0.29519000      -0.18718000 </v>
   <v>      -0.25013000       0.29519000       0.31282000 </v>
   <v>      -0.49987000       0.29519000       0.06281000 </v>
   <v>       0.49987000      -0.29519000       0.31282000 </v>
   <v>       0.00013000       0.29519000      -0.43719000 </v>
   <v>       0.25013000      -0.29519000      -0.43719000 </v>
   <v>      -0.00005000       0.32677000      -0.18714000 </v>
   <v>       0.24995000      -0.32677000      -0.18714000 </v>
   <v>      -0.24995000       0.32677000       0.06286000 </v>
   <v>      -0.25005000      -0.32677000       0.31286000 </v>
   <v>      -0.49995000      -0.32677000       0.06286000 </v>
   <v>       0.49995000       0.32677000       0.31286000 </v>
   <v>       0.00005000      -0.32677000      -0.43714000 </v>
   <v>       0.25005000       0.32677000      -0.43714000 </v>
   <v>      -0.37539000      -0.00016000       0.18687000 </v>
   <v>       0.12461000      -0.00016000      -0.31313000 </v>
   <v>      -0.24987000       0.07798000      -0.18754000 </v>
   <v>      -0.49987000      -0.07798000      -0.18754000 </v>
   <v>      -0.25013000      -0.07798000      -0.43754000 </v>
   <v>       0.49987000       0.07798000      -0.43754000 </v>
   <v>      -0.37461000      -0.00016000       0.43687000 </v>
   <v>      -0.37461000      -0.00016000      -0.06313000 </v>
   <v>       0.37461000       0.00017000      -0.31313000 </v>
   <v>      -0.12539000       0.00017000      -0.31313000 </v>
   <v>      -0.25013000       0.29519000      -0.18718000 </v>
   <v>       0.49987000      -0.29519000      -0.18718000 </v>
   <v>      -0.24987000      -0.29519000      -0.43719000 </v>
   <v>      -0.49987000       0.29519000      -0.43719000 </v>
   <v>      -0.25005000      -0.32677000      -0.18714000 </v>
   <v>       0.49995000       0.32677000      -0.18714000 </v>
   <v>      -0.24995000       0.32677000      -0.43714000 </v>
   <v>      -0.49995000      -0.32677000      -0.43714000 </v>
   <v>      -0.37539000      -0.00016000      -0.31313000 </v>
  </varray>
 </structure>
 <varray name="primitive_index" >
  <v type="int" >        1 </v>
  <v type="int" >       51 </v>
  <v type="int" >       48 </v>
  <v type="int" >       50 </v>
  <v type="int" >       49 </v>
  <v type="int" >        2 </v>
  <v type="int" >        6 </v>
  <v type="int" >        7 </v>
  <v type="int" >       15 </v>
  <v type="int" >       16 </v>
  <v type="int" >       22 </v>
  <v type="int" >       17 </v>
  <v type="int" >       32 </v>
  <v type="int" >       31 </v>
  <v type="int" >       37 </v>
  <v type="int" >       34 </v>
  <v type="int" >        4 </v>
  <v type="int" >       10 </v>
  <v type="int" >       13 </v>
  <v type="int" >       58 </v>
  <v type="int" >       52 </v>
  <v type="int" >       53 </v>
  <v type="int" >       57 </v>
  <v type="int" >       47 </v>
  <v type="int" >       59 </v>
  <v type="int" >       54 </v>
  <v type="int" >       56 </v>
  <v type="int" >       30 </v>
  <v type="int" >       20 </v>
  <v type="int" >       25 </v>
  <v type="int" >       21 </v>
  <v type="int" >       19 </v>
  <v type="int" >       18 </v>
  <v type="int" >       23 </v>
  <v type="int" >       24 </v>
  <v type="int" >       45 </v>
  <v type="int" >       42 </v>
  <v type="int" >       35 </v>
  <v type="int" >       38 </v>
  <v type="int" >       36 </v>
  <v type="int" >       33 </v>
  <v type="int" >       40 </v>
  <v type="int" >       39 </v>
  <v type="int" >        5 </v>
  <v type="int" >        8 </v>
  <v type="int" >       61 </v>
  <v type="int" >       62 </v>
  <v type="int" >       60 </v>
  <v type="int" >       55 </v>
  <v type="int" >        3 </v>
  <v type="int" >       14 </v>
  <v type="int" >        9 </v>
  <v type="int" >       12 </v>
  <v type="int" >       29 </v>
  <v type="int" >       26 </v>
  <v type="int" >       28 </v>
  <v type="int" >       27 </v>
  <v type="int" >       46 </v>
  <v type="int" >       41 </v>
  <v type="int" >       43 </v>
  <v type="int" >       44 </v>
  <v type="int" >       11 </v>
 </varray>
 <kpoints>
  <generation param="Gamma">
   <v type="int" name="divisions">       2        2        2 </v>
   <v name="usershift">      0.00000000       0.00000000       0.00000000 </v>
   <v name="genvec1">      0.50000000       0.00000000       0.00000000 </v>
   <v name="genvec2">      0.00000000       0.50000000       0.00000000 </v>
   <v name="genvec3">      0.00000000       0.00000000       0.50000000 </v>
   <v name="shift">      0.00000000       0.00000000       0.00000000 </v>
  </generation>
  <varray name="kpointlist" >
   <v>       0.00000000       0.00000000       0.00000000 </v>
   <v>       0.50000000       0.00000000       0.00000000 </v>
   <v>       0.00000000       0.50000000       0.00000000 </v>
   <v>       0.50000000       0.50000000       0.00000000 </v>
   <v>       0.00000000       0.00000000       0.50000000 </v>
   <v>       0.50000000       0.00000000       0.50000000 </v>
   <v>       0.00000000       0.50000000       0.50000000 </v>
   <v>       0.50000000       0.50000000       0.50000000 </v>
  </varray>
  <varray name="weights" >
   <v>       0.12500000 </v>
   <v>       0.12500000 </v>
   <v>       0.12500000 </v>
   <v>       0.12500000 </v>
   <v>       0.12500000 </v>
   <v>       0.12500000 </v>
   <v>       0.12500000 </v>
   <v>       0.12500000 </v>
  </varray>
  <varray name="tetrahedronlist"  type="int" >
   <v type="int" >        2        1        2        4        5 </v>
   <v type="int" >        2        1        3        4        5 </v>
   <v type="int" >        2        3        4        5        7 </v>
   <v type="int" >        2        2        4        5        6 </v>
   <v type="int" >        2        4        5        6        8 </v>
   <v type="int" >        2        4        5        7        8 </v>
   <v type="int" >        2        1        2        3        6 </v>
   <v type="int" >        2        2        3        4        6 </v>
   <v type="int" >        2        3        4        6        8 </v>
   <v type="int" >        2        1        3        5        6 </v>
   <v type="int" >        2        3        5        6        7 </v>
   <v type="int" >        2        3        6        7        8 </v>
   <v type="int" >        2        2        3        4        7 </v>
   <v type="int" >        2        1        2        3        7 </v>
   <v type="int" >        2        1        2        5        7 </v>
   <v type="int" >        2        2        4        7        8 </v>
   <v type="int" >        2        2        6        7        8 </v>
   <v type="int" >        2        2        5        6        7 </v>
   <v type="int" >        2        1        3        4        8 </v>
   <v type="int" >        2        1        2        4        8 </v>
   <v type="int" >        2        1        2        6        8 </v>
   <v type="int" >        2        1        3        7        8 </v>
   <v type="int" >        2        1        5        7        8 </v>
   <v type="int" >        2        1        5        6        8 </v>
  </varray>
  <i name="volumeweight">      0.02083333 </i>
 </kpoints>
 <parameters>
  <separator name="general" >
   <i type="string" name="SYSTEM">La2O2S</i>
   <i type="logical" name="LCOMPAT"> F  </i>
  </separator>
  <separator name="electronic" >
   <i type="string" name="PREC">normal</i>
   <i name="ENMAX">    600.00000000</i>
   <i name="ENAUG">    900.00000000</i>
   <i name="EDIFF">      0.00000100</i>
   <i type="int" name="IALGO">    38</i>
   <i type="int" name="IWAVPR">    11</i>
   <i type="int" name="NBANDS">   308</i>
   <i name="NELECT">    472.00000000</i>
   <i type="int" name="TURBO">     0</i>
   <i type="int" name="IRESTART">     0</i>
   <i type="int" name="NREBOOT">     0</i>
   <i type="int" name="NMIN">     0</i>
   <i name="EREF">      0.00000000</i>
   <separator name="electronic smearing" >
    <i type="int" name="ISMEAR">    -5</i>
    <i name="SIGMA">      0.20000000</i>
    <i name="KSPACING">      0.50000000</i>
    <i type="logical" name="KGAMMA"> T  </i>
   </separator>
   <separator name="electronic projectors" >
    <i type="logical" name="LREAL"> F  </i>
    <v name="ROPT">      0.00000000      0.00000000      0.00000000      0.00000000      0.00000000</v>
    <i type="int" name="LMAXPAW">  -100</i>
    <i type="int" name="LMAXMIX">     2</i>
    <i type="logical" name="NLSPLINE"> F  </i>
   </separator>
   <separator name="electronic startup" >
    <i type="int" name="ISTART">     0</i>
    <i type="int" name="ICHARG">     2</i>
    <i type="int" name="INIWAV">     1</i>
   </separator>
   <separator name="electronic spin" >
    <i type="int" name="ISPIN">     1</i>
    <i type="logical" name="LNONCOLLINEAR"> F  </i>
    <v name="MAGMOM">      1.00000000      1.00000000      1.00000000      1.00000000      1.00000000      1.00000000      1.00000000      1.00000000      1.00000000      1.00000000      1.00000000      1.00000000      1.00000000      1.00000000      1.00000000      1.00000000      1.00000000      1.00000000      1.00000000      1.00000000
      1.00000000      1.00000000      1.00000000      1.00000000      1.00000000      1.00000000      1.00000000      1.00000000      1.00000000      1.00000000      1.00000000      1.00000000      1.00000000      1.00000000      1.00000000      1.00000000      1.00000000      1.00000000      1.00000000      1.00000000
      1.00000000      1.00000000      1.00000000      1.00000000      1.00000000      1.00000000      1.00000000      1.00000000      1.00000000      1.00000000      1.00000000      1.00000000      1.00000000      1.00000000      1.00000000      1.00000000      1.00000000      1.00000000      1.00000000      1.00000000
      1.00000000      1.00000000</v>
    <i name="NUPDOWN">     -1.00000000</i>
    <i type="logical" name="LSORBIT"> F  </i>
    <v name="SAXIS">      0.00000000      0.00000000      1.00000000</v>
    <i type="logical" name="LSPIRAL"> F  </i>
    <v name="QSPIRAL">      0.00000000      0.00000000      0.00000000</v>
    <i type="logical" name="LZEROZ"> F  </i>
   </separator>
   <separator name="electronic exchange-correlation" >
    <i type="logical" name="LASPH"> F  </i>
    <i type="logical" name="LMETAGGA"> F  </i>
   </separator>
   <separator name="electronic convergence" >
    <i type="int" name="NELM">    60</i>
    <i type="int" name="NELMDL">    -5</i>
    <i type="int" name="NELMIN">     4</i>
    <i name="ENINI">    600.00000000</i>
    <separator name="electronic convergence detail" >
     <i type="logical" name="LDIAG"> T  </i>
     <i type="logical" name="LSUBROT"> F  </i>
     <i name="WEIMIN">      0.00100000</i>
     <i name="EBREAK">      0.00000000</i>
     <i name="DEPER">      0.30000000</i>
     <i type="int" name="NRMM">     4</i>
     <i name="TIME">      0.40000000</i>
    </separator>
   </separator>
   <separator name="electronic mixer" >
    <i name="AMIX">      0.40000000</i>
    <i name="BMIX">      1.00000000</i>
    <i name="AMIN">      0.10000000</i>
    <i name="AMIX_MAG">      1.60000000</i>
    <i name="BMIX_MAG">      1.00000000</i>
    <separator name="electronic mixer details" >
     <i type="int" name="IMIX">     4</i>
     <i type="logical" name="MIXFIRST"> F  </i>
     <i type="int" name="MAXMIX">   -45</i>
     <i name="WC">    100.00000000</i>
     <i type="int" name="INIMIX">     1</i>
     <i type="int" name="MIXPRE">     1</i>
     <i type="int" name="MREMOVE">     5</i>
    </separator>
   </separator>
   <separator name="electronic dipolcorrection" >
    <i type="logical" name="LDIPOL"> F  </i>
    <i type="logical" name="LMONO"> F  </i>
    <i type="int" name="IDIPOL">     0</i>
    <i name="EPSILON">      1.00000000</i>
    <v name="DIPOL">   -100.00000000   -100.00000000   -100.00000000</v>
    <i name="EFIELD">      0.00000000</i>
   </separator>
  </separator>
  <separator name="grids" >
   <i type="int" name="NGX">    70</i>
   <i type="int" name="NGY">    60</i>
   <i type="int" name="NGZ">    70</i>
   <i type="int" name="NGXF">   140</i>
   <i type="int" name="NGYF">   120</i>
   <i type="int" name="NGZF">   140</i>
   <i type="logical" name="ADDGRID"> F  </i>
  </separator>
  <separator name="ionic" >
   <i type="int" name="NSW">     1</i>
   <i type="int" name="IBRION">     2</i>
   <i type="int" name="MDALGO">     0</i>
   <i type="int" name="ISIF">     2</i>
   <i name="PSTRESS">      0.00000000</i>
   <i name="EDIFFG">     -0.01000000</i>
   <i type="int" name="NFREE">    10</i>
   <i name="POTIM">      0.50000000</i>
   <i name="SMASS">     -3.00000000</i>
   <i name="SCALEE">      1.00000000</i>
  </separator>
  <separator name="ionic md" >
   <i name="TEBEG">      0.00010000</i>
   <i name="TEEND">      0.00010000</i>
   <i type="int" name="NBLOCK">     1</i>
   <i type="int" name="KBLOCK">     1</i>
   <i type="int" name="NPACO">   256</i>
   <i name="APACO">     16.00000000</i>
  </separator>
  <separator name="symmetry" >
   <i type="int" name="ISYM">     2</i>
   <i name="SYMPREC">      0.00001000</i>
  </separator>
  <separator name="dos" >
   <i type="int" name="LORBIT">     0</i>
   <v name="RWIGS">     -1.00000000     -1.00000000     -1.00000000     -1.00000000     -1.00000000</v>
   <i type="int" name="NEDOS">   301</i>
   <i name="EMIN">     10.00000000</i>
   <i name="EMAX">    -10.00000000</i>
   <i name="EFERMI">      0.00000000</i>
  </separator>
  <separator name="writing" >
   <i type="int" name="NWRITE">     2</i>
   <i type="logical" name="LWAVE"> F  </i>
   <i type="logical" name="LDOWNSAMPLE"> F  </i>
   <i type="logical" name="LCHARG"> F  </i>
   <i type="logical" name="LPARD"> F  </i>
   <i type="logical" name="LVTOT"> F  </i>
   <i type="logical" name="LVHAR"> F  </i>
   <i type="logical" name="LELF"> F  </i>
   <i type="logical" name="LOPTICS"> F  </i>
   <v name="STM">      0.00000000      0.00000000      0.00000000      0.00000000      0.00000000      0.00000000      0.00000000</v>
  </separator>
  <separator name="performance" >
   <i type="int" name="NPAR">    28</i>
   <i type="int" name="NSIM">     4</i>
   <i type="int" name="NBLK">    -1</i>
   <i type="logical" name="LPLANE"> T  </i>
   <i type="logical" name="LSCALAPACK"> T  </i>
   <i type="logical" name="LSCAAWARE"> F  </i>
   <i type="logical" name="LSCALU"> F  </i>
   <i type="logical" name="LASYNC"> F  </i>
   <i type="logical" name="LORBITALREAL"> F  </i>
  </separator>
  <separator name="miscellaneous" >
   <i type="int" name="IDIOT">     3</i>
   <i type="int" name="ISPECIAL">     0</i>
   <i type="logical" name="LMUSIC"> F  </i>
   <v name="POMASS">      7.01000000     24.30500000    208.98000000     32.06600000     16.00000000</v>
   <v name="DARWINR">      0.00000000      0.00000000      0.00000000      0.00000000      0.00000000</v>
   <v name="DARWINV">      1.00000000      1.00000000      1.00000000      1.00000000      1.00000000</v>
   <i type="logical" name="LCORR"> T  </i>
  </separator>
  <i type="logical" name="GGA_COMPAT"> T  </i>
  <i type="logical" name="LBERRY"> F  </i>
  <i type="int" name="ICORELEVEL">     0</i>
  <i type="logical" name="LDAU"> F  </i>
  <i type="int" name="I_CONSTRAINED_M">     0</i>
  <separator name="electronic exchange-correlation" >
   <i type="string" name="GGA">--</i>
   <i type="int" name="VOSKOWN">     0</i>
   <i type="logical" name="LHFCALC"> F  </i>
   <i type="string" name="PRECFOCK"></i>
   <i type="logical" name="LSYMGRAD"> F  </i>
   <i type="logical" name="LHFONE"> F  </i>
   <i type="logical" name="LRHFCALC"> F  </i>
   <i type="logical" name="LTHOMAS"> F  </i>
   <i type="logical" name="LMODELHF"> F  </i>
   <i name="ENCUT4O">     -1.00000000</i>
   <i type="int" name="EXXOEP">     0</i>
   <i type="int" name="FOURORBIT">     0</i>
   <i name="AEXX">      0.00000000</i>
   <i name="HFALPHA">      0.00000000</i>
   <i name="MCALPHA">      0.00000000</i>
   <i name="ALDAX">      1.00000000</i>
   <i name="AGGAX">      1.00000000</i>
   <i name="ALDAC">      1.00000000</i>
   <i name="AGGAC">      1.00000000</i>
   <i type="int" name="NKREDX">     1</i>
   <i type="int" name="NKREDY">     1</i>
   <i type="int" name="NKREDZ">     1</i>
   <i type="logical" name="SHIFTRED"> F  </i>
   <i type="logical" name="ODDONLY"> F  </i>
   <i type="logical" name="EVENONLY"> F  </i>
   <i type="int" name="LMAXFOCK">     0</i>
   <i type="int" name="NMAXFOCKAE">     0</i>
   <i type="logical" name="LFOCKAEDFT"> F  </i>
   <i name="HFSCREEN">      0.00000000</i>
   <i name="HFSCREENC">      0.00000000</i>
   <i type="int" name="NBANDSGWLOW">     0</i>
  </separator>
  <separator name="vdW DFT" >
   <i type="logical" name="LUSE_VDW"> F  </i>
   <i name="Zab_VDW">     -0.84910000</i>
   <i name="PARAM1">      0.12340000</i>
   <i name="PARAM2">      1.00000000</i>
   <i name="PARAM3">      0.00000000</i>
  </separator>
  <separator name="model GW" >
   <i type="int" name="MODEL_GW">     0</i>
   <i name="MODEL_EPS0">     11.58240521</i>
   <i name="MODEL_ALPHA">      1.00000000</i>
  </separator>
  <separator name="linear response parameters" >
   <i type="logical" name="LEPSILON"> F  </i>
   <i type="logical" name="LRPA"> F  </i>
   <i type="logical" name="LNABLA"> F  </i>
   <i type="logical" name="LVEL"> F  </i>
   <i type="int" name="KINTER">     0</i>
   <i name="CSHIFT">      0.10000000</i>
   <i name="OMEGAMAX">     -1.00000000</i>
   <i name="DEG_THRESHOLD">      0.00200000</i>
   <i name="RTIME">     -0.10000000</i>
   <i name="WPLASMAI">      0.00000000</i>
   <v name="DFIELD">      0.00000000      0.00000000      0.00000000</v>
   <v name="WPLASMA">      0.00000000      0.00000000      0.00000000      0.00000000      0.00000000      0.00000000      0.00000000      0.00000000      0.00000000</v>
  </separator>
  <separator name="orbital magnetization" >
   <i type="logical" name="NUCIND"> F  </i>
   <v name="MAGPOS">      0.00000000      0.00000000      0.00000000</v>
   <i type="logical" name="LNICSALL"> T  </i>
   <i type="logical" name="ORBITALMAG"> F  </i>
   <i type="logical" name="LMAGBLOCH"> F  </i>
   <i type="logical" name="LCHIMAG"> F  </i>
   <i type="logical" name="LGAUGE"> T  </i>
   <i type="int" name="MAGATOM">     0</i>
   <v name="MAGDIPOL">      0.00000000      0.00000000      0.00000000</v>
   <v name="AVECCONST">      0.00000000      0.00000000      0.00000000</v>
  </separator>
  <separator name="response functions" >
   <i type="logical" name="LADDER"> F  </i>
   <i type="logical" name="LRPAFORCE"> F  </i>
   <i type="logical" name="LFXC"> F  </i>
   <i type="logical" name="LHARTREE"> T  </i>
   <i type="int" name="IBSE">     0</i>
   <v type="int" name="KPOINT">    -1     0     0     0</v>
   <i type="logical" name="LTCTE"> F  </i>
   <i type="logical" name="LTETE"> F  </i>
   <i type="logical" name="LTRIPLET"> F  </i>
   <i type="logical" name="LFXCEPS"> F  </i>
   <i type="logical" name="LFXHEG"> F  </i>
   <i type="int" name="NATURALO">     2</i>
   <i type="logical" name="L2ORDER"> F  </i>
   <i type="logical" name="LMP2LT"> F  </i>
   <i type="logical" name="LUSEW"> F  </i>
   <i name="ENCUTGW">     -2.00000000</i>
   <i name="ENCUTGWSOFT">     -2.00000000</i>
   <i name="ENCUTLF">     -1.00000000</i>
   <i type="int" name="LMAXMP2">    -1</i>
   <i name="SCISSOR">      0.00000000</i>
   <i type="int" name="NOMEGA">     0</i>
   <i type="int" name="NOMEGAR">     0</i>
   <i type="int" name="NBANDSGW">    -1</i>
   <i type="int" name="NBANDSO">    -1</i>
   <i type="int" name="NBANDSV">    -1</i>
   <i type="int" name="NELM">     1</i>
   <i type="int" name="NELMHF">     1</i>
   <i type="int" name="DIM">     3</i>
   <i type="int" name="ANTIRES">     0</i>
   <i name="OMEGAMAX">    -30.00000000</i>
   <i name="OMEGAMIN">    -30.00000000</i>
   <i name="OMEGATL">   -200.00000000</i>
   <i type="int" name="OMEGAGRID">   140</i>
   <i name="CSHIFT">     -0.10000000</i>
   <i type="logical" name="SELFENERGY"> F  </i>
   <i type="logical" name="LSPECTRAL"> F  </i>
   <i type="logical" name="LSPECTRALGW"> F  </i>
   <i type="logical" name="LSINGLES"> F  </i>
   <i type="logical" name="LFERMIGW"> F  </i>
   <i type="logical" name="ODDONLYGW"> F  </i>
   <i type="logical" name="EVENONLYGW"> F  </i>
   <i type="int" name="NKREDLFX">     1</i>
   <i type="int" name="NKREDLFY">     1</i>
   <i type="int" name="NKREDLFZ">     1</i>
   <i type="int" name="MAXMEM">  2800</i>
   <i type="int" name="TELESCOPE">     0</i>
   <i type="int" name="TAUPAR">     1</i>
   <i type="int" name="OMEGAPAR">    -1</i>
   <i name="LAMBDA">      1.00000000</i>
  </separator>
  <separator name="External order field" >
   <i name="OFIELD_KAPPA">      0.00000000</i>
   <v name="OFIELD_K">      0.00000000      0.00000000      0.00000000</v>
   <i name="OFIELD_Q6_NEAR">      0.00000000</i>
   <i name="OFIELD_Q6_FAR">      0.00000000</i>
   <i name="OFIELD_A">      0.00000000</i>
  </separator>
 </parameters>
 <atominfo>
  <atoms>      62 </atoms>
  <types>       5 </types>
  <array name="atoms" >
   <dimension dim="1">ion</dimension>
   <field type="string">element</field>
   <field type="int">atomtype</field>
   <set>
    <rc><c>Li</c><c>   1</c></rc>
    <rc><c>Li</c><c>   1</c></rc>
    <rc><c>Li</c><c>   1</c></rc>
    <rc><c>Li</c><c>   1</c></rc>
    <rc><c>Li</c><c>   1</c></rc>
    <rc><c>Li</c><c>   1</c></rc>
    <rc><c>Li</c><c>   1</c></rc>
    <rc><c>Li</c><c>   1</c></rc>
    <rc><c>Li</c><c>   1</c></rc>
    <rc><c>Li</c><c>   1</c></rc>
    <rc><c>Li</c><c>   1</c></rc>
    <rc><c>Li</c><c>   1</c></rc>
    <rc><c>Mg</c><c>   2</c></rc>
    <rc><c>Mg</c><c>   2</c></rc>
    <rc><c>Bi</c><c>   3</c></rc>
    <rc><c>Bi</c><c>   3</c></rc>
    <rc><c>Bi</c><c>   3</c></rc>
    <rc><c>Bi</c><c>   3</c></rc>
    <rc><c>Bi</c><c>   3</c></rc>
    <rc><c>Bi</c><c>   3</c></rc>
    <rc><c>Bi</c><c>   3</c></rc>
    <rc><c>Bi</c><c>   3</c></rc>
    <rc><c>Bi</c><c>   3</c></rc>
    <rc><c>Bi</c><c>   3</c></rc>
    <rc><c>Bi</c><c>   3</c></rc>
    <rc><c>Bi</c><c>   3</c></rc>
    <rc><c>Bi</c><c>   3</c></rc>
    <rc><c>Bi</c><c>   3</c></rc>
    <rc><c>Bi</c><c>   3</c></rc>
    <rc><c>Bi</c><c>   3</c></rc>
    <rc><c>S </c><c>   4</c></rc>
    <rc><c>S </c><c>   4</c></rc>
    <rc><c>S </c><c>   4</c></rc>
    <rc><c>S </c><c>   4</c></rc>
    <rc><c>S </c><c>   4</c></rc>
    <rc><c>S </c><c>   4</c></rc>
    <rc><c>S </c><c>   4</c></rc>
    <rc><c>S </c><c>   4</c></rc>
    <rc><c>S </c><c>   4</c></rc>
    <rc><c>S </c><c>   4</c></rc>
    <rc><c>S </c><c>   4</c></rc>
    <rc><c>S </c><c>   4</c></rc>
    <rc><c>S </c><c>   4</c></rc>
    <rc><c>S </c><c>   4</c></rc>
    <rc><c>S </c><c>   4</c></rc>
    <rc><c>S </c><c>   4</c></rc>
    <rc><c>O </c><c>   5</c></rc>
    <rc><c>O </c><c>   5</c></rc>
    <rc><c>O </c><c>   5</c></rc>
    <rc><c>O </c><c>   5</c></rc>
    <rc><c>O </c><c>   5</c></rc>
    <rc><c>O </c><c>   5</c></rc>
    <rc><c>O </c><c>   5</c></rc>
    <rc><c>O </c><c>   5</c></rc>
    <rc><c>O </c><c>   5</c></rc>
    <rc><c>O </c><c>   5</c></rc>
    <rc><c>O </c><c>   5</c></rc>
    <rc><c>O </c><c>   5</c></rc>
    <rc><c>O </c><c>   5</c></rc>
    <rc><c>O </c><c>   5</c></rc>
    <rc><c>O </c><c>   5</c></rc>
    <rc><c>O </c><c>   5</c></rc>
   </set>
  </array>
  <array name="atomtypes" >
   <dimension dim="1">type</dimension>
   <field type="int">atomspertype</field>
   <field type="string">element</field>
   <field>mass</field>
   <field>valence</field>
   <field type="string">pseudopotential</field>
   <set>
    <rc><c>  12</c><c>Li</c><c>      7.01000000</c><c>      3.00000000</c><c>  PAW_PBE Li_sv 10Sep2004               </c></rc>
    <rc><c>   2</c><c>Mg</c><c>     24.30500000</c><c>      2.00000000</c><c>  PAW_PBE Mg 13Apr2007                  </c></rc>
    <rc><c>  16</c><c>Bi</c><c>    208.98000000</c><c>     15.00000000</c><c>  PAW_PBE Bi_d 06Sep2000                </c></rc>
    <rc><c>  16</c><c>S </c><c>     32.06600000</c><c>      6.00000000</c><c>  PAW_PBE S 06Sep2000                   </c></rc>
    <rc><c>  16</c><c>O </c><c>     16.00000000</c><c>      6.00000000</c><c>  PAW_PBE O 08Apr2002                   </c></rc>
   </set>
  </array>
 </atominfo>
 <structure name="initialpos" >
  <crystal>
   <varray name="basis" >
    <v>      11.17850000       0.00000000       0.00000000 </v>
    <v>       0.00000000       9.57460000       0.00000000 </v>
    <v>       0.00000000       0.00000000      11.18240000 </v>
   </varray>
   <i name="volume">   1196.84853820 </i>
   <varray name="rec_basis" >
    <v>       0.08945744       0.00000000       0.00000000 </v>
    <v>       0.00000000       0.10444301       0.00000000 </v>
    <v>       0.00000000       0.00000000       0.08942624 </v>
   </varray>
  </crystal>
  <varray name="positions" >
   <v>       0.12461000       0.99984000       0.18687000 </v>
   <v>       0.37461000       0.00017000       0.18687000 </v>
   <v>       0.62539000       0.99984000       0.43687000 </v>
   <v>       0.87539000       0.00017000       0.43687000 </v>
   <v>       0.62461000       0.99984000       0.18687000 </v>
   <v>       0.87461000       0.00017000       0.18687000 </v>
   <v>       0.12539000       0.99984000       0.93687000 </v>
   <v>       0.12461000       0.99984000       0.68687000 </v>
   <v>       0.37461000       0.00017000       0.68687000 </v>
   <v>       0.87539000       0.00017000       0.93687000 </v>
   <v>       0.62461000       0.99984000       0.68687000 </v>
   <v>       0.87461000       0.00017000       0.68687000 </v>
   <v>       0.37539000       0.00017000       0.43687000 </v>
   <v>       0.62539000       0.99984000       0.93687000 </v>
   <v>       0.00013000       0.29519000       0.06281000 </v>
   <v>       0.25013000       0.70481000       0.06281000 </v>
   <v>       0.24987000       0.29519000       0.31282000 </v>
   <v>       0.49987000       0.70481000       0.31282000 </v>
   <v>       0.50013000       0.29519000       0.06281000 </v>
   <v>       0.75013000       0.70481000       0.06281000 </v>
   <v>       0.74987000       0.29519000       0.31282000 </v>
   <v>       0.99987000       0.70481000       0.31282000 </v>
   <v>       0.00013000       0.29519000       0.56281000 </v>
   <v>       0.25013000       0.70481000       0.56281000 </v>
   <v>       0.24987000       0.29519000       0.81282000 </v>
   <v>       0.49987000       0.70481000       0.81282000 </v>
   <v>       0.50013000       0.29519000       0.56281000 </v>
   <v>       0.75013000       0.70481000       0.56281000 </v>
   <v>       0.74987000       0.29519000       0.81282000 </v>
   <v>       0.99987000       0.70481000       0.81282000 </v>
   <v>       0.25005000       0.32677000       0.06286000 </v>
   <v>       0.00005000       0.67323000       0.06286000 </v>
   <v>       0.49995000       0.32677000       0.31286000 </v>
   <v>       0.24995000       0.67323000       0.31286000 </v>
   <v>       0.75005000       0.32677000       0.06286000 </v>
   <v>       0.50005000       0.67323000       0.06286000 </v>
   <v>       0.99995000       0.32677000       0.31286000 </v>
   <v>       0.74995000       0.67323000       0.31286000 </v>
   <v>       0.25005000       0.32677000       0.56286000 </v>
   <v>       0.00005000       0.67323000       0.56286000 </v>
   <v>       0.49995000       0.32677000       0.81286000 </v>
   <v>       0.24995000       0.67323000       0.81286000 </v>
   <v>       0.75005000       0.32677000       0.56286000 </v>
   <v>       0.50005000       0.67323000       0.56286000 </v>
   <v>       0.99995000       0.32677000       0.81286000 </v>
   <v>       0.74995000       0.67323000       0.81286000 </v>
   <v>       0.49987000       0.07798000       0.06246000 </v>
   <v>       0.24987000       0.92202000       0.06246000 </v>
   <v>       0.25013000       0.07798000       0.31246000 </v>
   <v>       0.00013000       0.92202000       0.31246000 </v>
   <v>       0.99987000       0.07798000       0.06246000 </v>
   <v>       0.74987000       0.92202000       0.06246000 </v>
   <v>       0.75013000       0.07798000       0.31246000 </v>
   <v>       0.50013000       0.92202000       0.31246000 </v>
   <v>       0.49987000       0.07798000       0.56246000 </v>
   <v>       0.24987000       0.92202000       0.56246000 </v>
   <v>       0.25013000       0.07798000       0.81246000 </v>
   <v>       0.00013000       0.92202000       0.81246000 </v>
   <v>       0.99987000       0.07798000       0.56246000 </v>
   <v>       0.74987000       0.92202000       0.56246000 </v>
   <v>       0.75013000       0.07798000       0.81246000 </v>
   <v>       0.50013000       0.92202000       0.81246000 </v>
  </varray>
 </structure>
 <calculation>
  <scstep>
   <time name="dav">   65.87   66.19</time>
   <time name="total">   65.96   66.28</time>
   <energy>
    <i name="alphaZ">   1079.87189334 </i>
    <i name="ewald"> -31114.19508602 </i>
    <i name="hartreedc"> -12710.88478178 </i>
    <i name="XCdc">   1468.88754599 </i>
    <i name="pawpsdc">  36917.91861236 </i>
    <i name="pawaedc"> -36503.41947684 </i>
    <i name="eentropy">      0.00000000 </i>
    <i name="bandstr">   1591.74105889 </i>
    <i name="atom">  45173.57650906 </i>
    <i name="e_fr_energy">   5903.49627502 </i>
    <i name="e_wo_entrp">   5903.49627502 </i>
    <i name="e_0_energy">   5903.49627502 </i>
   </energy>
  </scstep>
  <scstep>
   <time name="dav">   65.81   66.12</time>
   <time name="total">   65.82   66.13</time>
   <energy>
    <i name="e_fr_energy">    763.74450355 </i>
    <i name="e_wo_entrp">    763.74450355 </i>
    <i name="e_0_energy">    763.74450355 </i>
   </energy>
  </scstep>
  <scstep>
   <time name="dav">   73.12   73.48</time>
   <time name="total">   73.13   73.48</time>
   <energy>
    <i name="e_fr_energy">   -242.36538224 </i>
    <i name="e_wo_entrp">   -242.36538224 </i>
    <i name="e_0_energy">   -242.36538224 </i>
   </energy>
  </scstep>
  <scstep>
   <time name="dav">   81.01   81.45</time>
   <time name="total">   81.02   81.45</time>
   <energy>
    <i name="e_fr_energy">   -352.34173819 </i>
    <i name="e_wo_entrp">   -352.34173819 </i>
    <i name="e_0_energy">   -352.34173819 </i>
   </energy>
  </scstep>
  <scstep>
   <time name="dav">  105.85  106.30</time>
   <time name="total">  106.58  107.03</time>
   <energy>
    <i name="e_fr_energy">   -361.03146886 </i>
    <i name="e_wo_entrp">   -361.03146886 </i>
    <i name="e_0_energy">   -361.03146886 </i>
   </energy>
  </scstep>
  <scstep>
   <time name="dav">   93.26   94.14</time>
   <time name="total">   94.07   94.96</time>
   <energy>
    <i name="e_fr_energy">   -301.09083935 </i>
    <i name="e_wo_entrp">   -301.09083935 </i>
    <i name="e_0_energy">   -301.09083935 </i>
   </energy>
  </scstep>
  <scstep>
   <time name="dav">   72.40   73.15</time>
   <time name="total">   73.20   73.96</time>
   <energy>
    <i name="e_fr_energy">   -303.26553275 </i>
    <i name="e_wo_entrp">   -303.26553275 </i>
    <i name="e_0_energy">   -303.26553275 </i>
   </energy>
  </scstep>
  <scstep>
   <time name="dav">   83.38   84.52</time>
   <time name="total">   84.18   85.32</time>
   <energy>
    <i name="e_fr_energy">   -301.87399588 </i>
    <i name="e_wo_entrp">   -301.87399588 </i>
    <i name="e_0_energy">   -301.87399588 </i>
   </energy>
  </scstep>
  <scstep>
   <time name="dav">   90.05   90.83</time>
   <time name="total">   90.84   91.63</time>
   <energy>
    <i name="e_fr_energy">   -301.26748176 </i>
    <i name="e_wo_entrp">   -301.26748176 </i>
    <i name="e_0_energy">   -301.26748176 </i>
   </energy>
  </scstep>
  <scstep>
   <time name="dav">   80.39   80.74</time>
   <time name="total">   81.18   81.54</time>
   <energy>
    <i name="e_fr_energy">   -301.23060054 </i>
    <i name="e_wo_entrp">   -301.23060054 </i>
    <i name="e_0_energy">   -301.23060054 </i>
   </energy>
  </scstep>
  <scstep>
   <time name="dav">   88.76   89.15</time>
   <time name="total">   89.56   89.95</time>
   <energy>
    <i name="e_fr_energy">   -301.24352536 </i>
    <i name="e_wo_entrp">   -301.24352536 </i>
    <i name="e_0_energy">   -301.24352536 </i>
   </energy>
  </scstep>
  <scstep>
   <time name="dav">   84.27   84.67</time>
   <time name="total">   85.08   85.48</time>
   <energy>
    <i name="e_fr_energy">   -301.24830964 </i>
    <i name="e_wo_entrp">   -301.24830964 </i>
    <i name="e_0_energy">   -301.24830964 </i>
   </energy>
  </scstep>
  <scstep>
   <time name="dav">   85.85   86.21</time>
   <time name="total">   86.65   87.01</time>
   <energy>
    <i name="e_fr_energy">   -301.24915746 </i>
    <i name="e_wo_entrp">   -301.24915746 </i>
    <i name="e_0_energy">   -301.24915746 </i>
   </energy>
  </scstep>
  <scstep>
   <time name="dav">   75.67   76.18</time>
   <time name="total">   76.47   76.98</time>
   <energy>
    <i name="e_fr_energy">   -301.24942885 </i>
    <i name="e_wo_entrp">   -301.24942885 </i>
    <i name="e_0_energy">   -301.24942885 </i>
   </energy>
  </scstep>
  <scstep>
   <time name="dav">   96.69   97.25</time>
   <time name="total">   97.56   98.13</time>
   <energy>
    <i name="e_fr_energy">   -301.24946415 </i>
    <i name="e_wo_entrp">   -301.24946415 </i>
    <i name="e_0_energy">   -301.24946415 </i>
   </energy>
  </scstep>
  <scstep>
   <time name="dav">   69.37   69.77</time>
   <time name="total">   70.17   70.57</time>
   <energy>
    <i name="e_fr_energy">   -301.24947805 </i>
    <i name="e_wo_entrp">   -301.24947805 </i>
    <i name="e_0_energy">   -301.24947805 </i>
   </energy>
  </scstep>
  <scstep>
   <time name="dav">   76.25   76.81</time>
   <time name="total">   77.05   77.61</time>
   <energy>
    <i name="e_fr_energy">   -301.24948070 </i>
    <i name="e_wo_entrp">   -301.24948070 </i>
    <i name="e_0_energy">   -301.24948070 </i>
   </energy>
  </scstep>
  <scstep>
   <time name="dav">   57.79   58.74</time>
   <time name="total">   57.86   58.82</time>
   <energy>
    <i name="alphaZ">   1079.87189334 </i>
    <i name="ewald"> -31114.19508602 </i>
    <i name="hartreedc"> -12945.84495815 </i>
    <i name="XCdc">   1491.81505408 </i>
    <i name="pawpsdc">  43947.30772861 </i>
    <i name="pawaedc"> -43508.34841612 </i>
    <i name="eentropy">      0.00000000 </i>
    <i name="bandstr">  -4425.43220590 </i>
    <i name="atom">  45173.57650906 </i>
    <i name="e_fr_energy">   -301.24948108 </i>
    <i name="e_wo_entrp">   -301.24948108 </i>
    <i name="e_0_energy">   -301.24948108 </i>
   </energy>
  </scstep>
  <structure>
   <crystal>
    <varray name="basis" >
     <v>      11.17850000       0.00000000       0.00000000 </v>
     <v>       0.00000000       9.57460000       0.00000000 </v>
     <v>       0.00000000       0.00000000      11.18240000 </v>
    </varray>
    <i name="volume">   1196.84853820 </i>
    <varray name="rec_basis" >
     <v>       0.08945744       0.00000000       0.00000000 </v>
     <v>       0.00000000       0.10444301       0.00000000 </v>
     <v>       0.00000000       0.00000000       0.08942624 </v>
    </varray>
   </crystal>
   <varray name="positions" >
    <v>       0.12461000       0.99984000       0.18687000 </v>
    <v>       0.37461000       0.00017000       0.18687000 </v>
    <v>       0.62539000       0.99984000       0.43687000 </v>
    <v>       0.87539000       0.00017000       0.43687000 </v>
    <v>       0.62461000       0.99984000       0.18687000 </v>
    <v>       0.87461000       0.00017000       0.18687000 </v>
    <v>       0.12539000       0.99984000       0.93687000 </v>
    <v>       0.12461000       0.99984000       0.68687000 </v>
    <v>       0.37461000       0.00017000       0.68687000 </v>
    <v>       0.87539000       0.00017000       0.93687000 </v>
    <v>       0.62461000       0.99984000       0.68687000 </v>
    <v>       0.87461000       0.00017000       0.68687000 </v>
    <v>       0.37539000       0.00017000       0.43687000 </v>
    <v>       0.62539000       0.99984000       0.93687000 </v>
    <v>       0.00013000       0.29519000       0.06281000 </v>
    <v>       0.25013000       0.70481000       0.06281000 </v>
    <v>       0.24987000       0.29519000       0.31282000 </v>
    <v>       0.49987000       0.70481000       0.31282000 </v>
    <v>       0.50013000       0.29519000       0.06281000 </v>
    <v>       0.75013000       0.70481000       0.06281000 </v>
    <v>       0.74987000       0.29519000       0.31282000 </v>
    <v>       0.99987000       0.70481000       0.31282000 </v>
    <v>       0.00013000       0.29519000       0.56281000 </v>
    <v>       0.25013000       0.70481000       0.56281000 </v>
    <v>       0.24987000       0.29519000       0.81282000 </v>
    <v>       0.49987000       0.70481000       0.81282000 </v>
    <v>       0.50013000       0.29519000       0.56281000 </v>
    <v>       0.75013000       0.70481000       0.56281000 </v>
    <v>       0.74987000       0.29519000       0.81282000 </v>
    <v>       0.99987000       0.70481000       0.81282000 </v>
    <v>       0.25005000       0.32677000       0.06286000 </v>
    <v>       0.00005000       0.67323000       0.06286000 </v>
    <v>       0.49995000       0.32677000       0.31286000 </v>
    <v>       0.24995000       0.67323000       0.31286000 </v>
    <v>       0.75005000       0.32677000       0.06286000 </v>
    <v>       0.50005000       0.67323000       0.06286000 </v>
    <v>       0.99995000       0.32677000       0.31286000 </v>
    <v>       0.74995000       0.67323000       0.31286000 </v>
    <v>       0.25005000       0.32677000       0.56286000 </v>
    <v>       0.00005000       0.67323000       0.56286000 </v>
    <v>       0.49995000       0.32677000       0.81286000 </v>
    <v>       0.24995000       0.67323000       0.81286000 </v>
    <v>       0.75005000       0.32677000       0.56286000 </v>
    <v>       0.50005000       0.67323000       0.56286000 </v>
    <v>       0.99995000       0.32677000       0.81286000 </v>
    <v>       0.74995000       0.67323000       0.81286000 </v>
    <v>       0.49987000       0.07798000       0.06246000 </v>
    <v>       0.24987000       0.92202000       0.06246000 </v>
    <v>       0.25013000       0.07798000       0.31246000 </v>
    <v>       0.00013000       0.92202000       0.31246000 </v>
    <v>       0.99987000       0.07798000       0.06246000 </v>
    <v>       0.74987000       0.92202000       0.06246000 </v>
    <v>       0.75013000       0.07798000       0.31246000 </v>
    <v>       0.50013000       0.92202000       0.31246000 </v>
    <v>       0.49987000       0.07798000       0.56246000 </v>
    <v>       0.24987000       0.92202000       0.56246000 </v>
    <v>       0.25013000       0.07798000       0.81246000 </v>
    <v>       0.00013000       0.92202000       0.81246000 </v>
    <v>       0.99987000       0.07798000       0.56246000 </v>
    <v>       0.74987000       0.92202000       0.56246000 </v>
    <v>       0.75013000       0.07798000       0.81246000 </v>
    <v>       0.50013000       0.92202000       0.81246000 </v>
   </varray>
  </structure>
  <varray name="forces" >
   <v>       0.08457277      -0.12797132       0.26533658 </v>
   <v>      -0.31403778      -0.00063467      -0.72738367 </v>
   <v>       0.49237438       0.00019618       0.00610399 </v>
   <v>       0.56252894      -0.00148467       0.00551400 </v>
   <v>      -0.07381295       0.13152568       0.23247867 </v>
   <v>       0.32610831       0.00609755       0.25247378 </v>
   <v>       0.48018562       0.00128433       0.00540082 </v>
   <v>       0.08542181       0.12882434      -0.25338803 </v>
   <v>      -0.31471019      -0.00030090       0.73854828 </v>
   <v>       0.55149318      -0.00040461       0.00625675 </v>
   <v>      -0.07379898      -0.13107848      -0.22186891 </v>
   <v>       0.32571135      -0.00775305      -0.24113357 </v>
   <v>      -1.16927680      -0.00509810       0.03204518 </v>
   <v>      -1.02568408       0.00401305       0.03214357 </v>
   <v>       0.23011814       0.00948310       0.03681838 </v>
   <v>      -0.05621903       1.01298498      -0.17554688 </v>
   <v>      -0.43643061      -0.01660512      -0.01395559 </v>
   <v>      -0.04670892      -1.06309887      -0.12751266 </v>
   <v>      -0.44979095       0.01302525      -0.09859640 </v>
   <v>       0.26367507      -1.04647845       0.14901258 </v>
   <v>       0.27031937       0.04504335       0.05690719 </v>
   <v>       0.22898445       1.03387495       0.13907090 </v>
   <v>       0.21377865      -1.02244581      -0.14923497 </v>
   <v>      -0.44260547       0.02129217       0.00567589 </v>
   <v>      -0.03846563      -1.02436818       0.16465931 </v>
   <v>      -0.44458535      -0.01589421       0.08811508 </v>
   <v>      -0.05990062       1.05520803       0.12146412 </v>
   <v>       0.25717226      -0.04555723      -0.06735269 </v>
   <v>       0.27445846       1.05524355      -0.15429498 </v>
   <v>       0.24422028      -0.00986633      -0.04502685 </v>
   <v>       0.06239042       0.19933215       0.11311105 </v>
   <v>      -0.27283021      -0.22728644      -0.11103016 </v>
   <v>       0.03420735       0.10504985       0.13122160 </v>
   <v>       0.33853414      -0.15340276       0.13439992 </v>
   <v>      -0.10693757       0.09980600      -0.12785918 </v>
   <v>       0.30376435      -0.07897171       0.04821771 </v>
   <v>      -0.10750311       0.19331137      -0.11521287 </v>
   <v>      -0.25451060      -0.15234021      -0.07510073 </v>
   <v>       0.33427566       0.15462614      -0.13823306 </v>
   <v>      -0.10930168      -0.19289413       0.11540037 </v>
   <v>       0.30756544       0.07881706      -0.04858953 </v>
   <v>       0.06432056      -0.19987906      -0.11246907 </v>
   <v>      -0.25330681       0.15132943       0.07584525 </v>
   <v>       0.03435620      -0.10733664      -0.13033296 </v>
   <v>      -0.27361998       0.22682300       0.10829234 </v>
   <v>      -0.10712052      -0.09766405       0.12834241 </v>
   <v>       1.32033104      -0.06766068       0.17499364 </v>
   <v>      -0.51586838      -0.83880786       0.66665162 </v>
   <v>       1.32620578       0.04941127      -0.03897245 </v>
   <v>      -0.70008133      -0.83474029      -0.65671708 </v>
   <v>      -0.23429011       0.02399738      -0.07718555 </v>
   <v>      -0.54510005       0.85448043      -0.56956793 </v>
   <v>      -0.24522299      -0.08857804      -0.07745387 </v>
   <v>      -0.37574816       0.84867714       0.55161551 </v>
   <v>      -0.36985174      -0.84830774      -0.56582148 </v>
   <v>       1.34529054      -0.04403364       0.02298258 </v>
   <v>      -0.52959435       0.84313346      -0.66402819 </v>
   <v>      -0.24619661      -0.02367942       0.07351248 </v>
   <v>      -0.68792358       0.83076497       0.65944889 </v>
   <v>      -0.23304344       0.08995655       0.07565417 </v>
   <v>      -0.54954675      -0.85433987       0.55522710 </v>
   <v>       1.30126082       0.06134985      -0.18907239 </v>
  </varray>
  <varray name="stress" >
   <v>      -9.89959866      -0.00034277       0.02258916 </v>
   <v>      -0.00034300     -14.39900832      -0.01508831 </v>
   <v>       0.02258932      -0.01508840      -7.43821260 </v>
  </varray>
  <energy>
   <i name="e_fr_energy">   -317.04587149 </i>
   <i name="e_wo_entrp">   -317.04587149 </i>
   <i name="e_0_energy">      0.00000000 </i>
  </energy>
  <time name="totalsc"> 1570.69 1581.47</time>
  <eigenvalues>
   <array>
    <dimension dim="1">band</dimension>
    <dimension dim="2">kpoint</dimension>
    <dimension dim="3">spin</dimension>
    <field>eigene</field>
    <field>occ</field>
    <set>
     <set comment="spin 1">
      <set comment="kpoint 1">
       <r>  -40.2543    1.0000 </r>
       <r>  -40.2476    1.0000 </r>
       <r>  -40.2415    1.0000 </r>
       <r>  -40.1541    1.0000 </r>
       <r>  -39.7954    1.0000 </r>
       <r>  -39.7949    1.0000 </r>
       <r>  -39.7837    1.0000 </r>
       <r>  -39.7830    1.0000 </r>
       <r>  -39.4219    1.0000 </r>
       <r>  -39.3442    1.0000 </r>
       <r>  -39.3394    1.0000 </r>
       <r>  -39.3308    1.0000 </r>
       <r>  -18.9055    1.0000 </r>
       <r>  -18.9047    1.0000 </r>
       <r>  -18.8981    1.0000 </r>
       <r>  -18.8972    1.0000 </r>
       <r>  -18.8371    1.0000 </r>
       <r>  -18.8367    1.0000 </r>
       <r>  -18.8305    1.0000 </r>
       <r>  -18.8301    1.0000 </r>
       <r>  -18.8225    1.0000 </r>
       <r>  -18.8221    1.0000 </r>
       <r>  -18.8142    1.0000 </r>
       <r>  -18.8138    1.0000 </r>
       <r>  -18.7295    1.0000 </r>
       <r>  -18.7283    1.0000 </r>
       <r>  -18.7262    1.0000 </r>
       <r>  -18.7247    1.0000 </r>
       <r>  -18.7153    1.0000 </r>
       <r>  -18.7149    1.0000 </r>
       <r>  -18.7127    1.0000 </r>
       <r>  -18.7118    1.0000 </r>
       <r>  -18.6938    1.0000 </r>
       <r>  -18.6933    1.0000 </r>
       <r>  -18.6846    1.0000 </r>
       <r>  -18.6845    1.0000 </r>
       <r>  -18.6812    1.0000 </r>
       <r>  -18.6807    1.0000 </r>
       <r>  -18.6747    1.0000 </r>
       <r>  -18.6741    1.0000 </r>
       <r>  -18.6655    1.0000 </r>
       <r>  -18.6649    1.0000 </r>
       <r>  -18.6593    1.0000 </r>
       <r>  -18.6588    1.0000 </r>
       <r>  -18.5516    1.0000 </r>
       <r>  -18.5507    1.0000 </r>
       <r>  -18.5437    1.0000 </r>
       <r>  -18.5430    1.0000 </r>
       <r>  -18.5382    1.0000 </r>
       <r>  -18.5369    1.0000 </r>
       <r>  -18.5356    1.0000 </r>
       <r>  -18.5350    1.0000 </r>
       <r>  -18.5274    1.0000 </r>
       <r>  -18.5264    1.0000 </r>
       <r>  -18.5244    1.0000 </r>
       <r>  -18.5234    1.0000 </r>
       <r>  -18.5217    1.0000 </r>
       <r>  -18.5216    1.0000 </r>
       <r>  -18.5196    1.0000 </r>
       <r>  -18.5189    1.0000 </r>
       <r>  -18.5123    1.0000 </r>
       <r>  -18.5119    1.0000 </r>
       <r>  -18.5106    1.0000 </r>
       <r>  -18.5104    1.0000 </r>
       <r>  -18.3911    1.0000 </r>
       <r>  -18.3898    1.0000 </r>
       <r>  -18.3755    1.0000 </r>
       <r>  -18.3753    1.0000 </r>
       <r>  -18.3750    1.0000 </r>
       <r>  -18.3746    1.0000 </r>
       <r>  -18.3730    1.0000 </r>
       <r>  -18.3716    1.0000 </r>
       <r>  -18.3645    1.0000 </r>
       <r>  -18.3637    1.0000 </r>
       <r>  -18.3635    1.0000 </r>
       <r>  -18.3631    1.0000 </r>
       <r>  -18.3606    1.0000 </r>
       <r>  -18.3604    1.0000 </r>
       <r>  -18.3469    1.0000 </r>
       <r>  -18.3468    1.0000 </r>
       <r>  -18.2806    1.0000 </r>
       <r>  -18.2800    1.0000 </r>
       <r>  -18.2716    1.0000 </r>
       <r>  -18.2711    1.0000 </r>
       <r>  -18.1631    1.0000 </r>
       <r>  -18.1619    1.0000 </r>
       <r>  -18.1594    1.0000 </r>
       <r>  -18.1585    1.0000 </r>
       <r>  -18.1495    1.0000 </r>
       <r>  -18.1486    1.0000 </r>
       <r>  -18.1459    1.0000 </r>
       <r>  -18.1447    1.0000 </r>
       <r>  -13.5556    1.0000 </r>
       <r>  -13.5234    1.0000 </r>
       <r>  -13.4445    1.0000 </r>
       <r>  -13.4192    1.0000 </r>
       <r>  -12.8338    1.0000 </r>
       <r>  -12.7617    1.0000 </r>
       <r>  -12.7554    1.0000 </r>
       <r>  -12.6937    1.0000 </r>
       <r>  -12.6560    1.0000 </r>
       <r>  -12.5742    1.0000 </r>
       <r>  -12.5684    1.0000 </r>
       <r>  -12.5055    1.0000 </r>
       <r>  -11.9498    1.0000 </r>
       <r>  -11.9258    1.0000 </r>
       <r>  -11.9030    1.0000 </r>
       <r>  -11.8664    1.0000 </r>
       <r>   -9.3066    1.0000 </r>
       <r>   -9.0145    1.0000 </r>
       <r>   -8.5375    1.0000 </r>
       <r>   -8.4813    1.0000 </r>
       <r>   -8.4264    1.0000 </r>
       <r>   -8.4094    1.0000 </r>
       <r>   -8.3206    1.0000 </r>
       <r>   -8.2696    1.0000 </r>
       <r>   -8.1982    1.0000 </r>
       <r>   -8.1923    1.0000 </r>
       <r>   -7.9703    1.0000 </r>
       <r>   -7.9691    1.0000 </r>
       <r>   -7.9561    1.0000 </r>
       <r>   -7.9555    1.0000 </r>
       <r>   -7.3188    1.0000 </r>
       <r>   -7.3185    1.0000 </r>
       <r>   -6.3460    1.0000 </r>
       <r>   -6.3437    1.0000 </r>
       <r>   -6.3318    1.0000 </r>
       <r>   -6.3289    1.0000 </r>
       <r>   -5.5364    1.0000 </r>
       <r>   -5.4922    1.0000 </r>
       <r>   -5.3530    1.0000 </r>
       <r>   -5.3238    1.0000 </r>
       <r>   -5.3169    1.0000 </r>
       <r>   -5.1842    1.0000 </r>
       <r>   -5.1216    1.0000 </r>
       <r>   -5.1136    1.0000 </r>
       <r>   -5.0768    1.0000 </r>
       <r>   -4.9732    1.0000 </r>
       <r>   -3.7641    1.0000 </r>
       <r>   -3.6090    1.0000 </r>
       <r>   -1.3742    1.0000 </r>
       <r>   -1.3417    1.0000 </r>
       <r>   -1.0454    1.0000 </r>
       <r>   -1.0195    1.0000 </r>
       <r>   -0.5474    1.0000 </r>
       <r>   -0.4854    1.0000 </r>
       <r>   -0.4562    1.0000 </r>
       <r>   -0.4194    1.0000 </r>
       <r>   -0.1751    1.0000 </r>
       <r>   -0.1430    1.0000 </r>
       <r>   -0.1253    1.0000 </r>
       <r>   -0.0952    1.0000 </r>
       <r>    0.0456    1.0000 </r>
       <r>    0.0598    1.0000 </r>
       <r>    0.2884    1.0000 </r>
       <r>    0.3005    1.0000 </r>
       <r>    0.3902    1.0000 </r>
       <r>    0.4517    1.0000 </r>
       <r>    0.5089    1.0000 </r>
       <r>    0.6400    1.0000 </r>
       <r>    0.6642    1.0000 </r>
       <r>    0.6767    1.0000 </r>
       <r>    0.8108    1.0000 </r>
       <r>    0.8373    1.0000 </r>
       <r>    0.8445    1.0000 </r>
       <r>    0.8789    1.0000 </r>
       <r>    0.9430    1.0000 </r>
       <r>    0.9776    1.0000 </r>
       <r>    0.9909    1.0000 </r>
       <r>    1.0526    1.0000 </r>
       <r>    1.0626    1.0000 </r>
       <r>    1.0800    1.0000 </r>
       <r>    1.1193    1.0000 </r>
       <r>    1.1690    1.0000 </r>
       <r>    1.2308    1.0000 </r>
       <r>    1.2744    1.0000 </r>
       <r>    1.3608    1.0000 </r>
       <r>    1.4116    1.0000 </r>
       <r>    1.4313    1.0000 </r>
       <r>    1.4321    1.0000 </r>
       <r>    1.5802    1.0000 </r>
       <r>    1.5934    1.0000 </r>
       <r>    1.6329    1.0000 </r>
       <r>    1.6358    1.0000 </r>
       <r>    1.7043    1.0000 </r>
       <r>    1.7916    1.0000 </r>
       <r>    1.8588    1.0000 </r>
       <r>    1.8888    1.0000 </r>
       <r>    1.9023    1.0000 </r>
       <r>    1.9443    1.0000 </r>
       <r>    1.9529    1.0000 </r>
       <r>    2.0331    1.0000 </r>
       <r>    2.0637    1.0000 </r>
       <r>    2.2468    1.0000 </r>
       <r>    2.2784    1.0000 </r>
       <r>    2.3498    1.0000 </r>
       <r>    2.3711    1.0000 </r>
       <r>    2.4339    1.0000 </r>
       <r>    2.4766    1.0000 </r>
       <r>    2.5522    1.0000 </r>
       <r>    2.5991    1.0000 </r>
       <r>    2.6082    1.0000 </r>
       <r>    2.6093    1.0000 </r>
       <r>    2.6147    1.0000 </r>
       <r>    2.6383    1.0000 </r>
       <r>    2.6481    1.0000 </r>
       <r>    2.6752    1.0000 </r>
       <r>    2.6772    1.0000 </r>
       <r>    2.7076    1.0000 </r>
       <r>    2.8169    1.0000 </r>
       <r>    2.8180    1.0000 </r>
       <r>    2.8731    1.0000 </r>
       <r>    2.9260    1.0000 </r>
       <r>    2.9374    1.0000 </r>
       <r>    3.0673    1.0000 </r>
       <r>    3.1020    1.0000 </r>
       <r>    3.1124    1.0000 </r>
       <r>    3.1349    1.0000 </r>
       <r>    3.1662    1.0000 </r>
       <r>    3.1689    1.0000 </r>
       <r>    3.1990    1.0000 </r>
       <r>    3.2221    1.0000 </r>
       <r>    3.2277    1.0000 </r>
       <r>    3.2645    1.0000 </r>
       <r>    3.3036    1.0000 </r>
       <r>    3.3336    1.0000 </r>
       <r>    3.3359    1.0000 </r>
       <r>    3.4234    1.0000 </r>
       <r>    3.4849    1.0000 </r>
       <r>    3.4920    1.0000 </r>
       <r>    3.5756    1.0000 </r>
       <r>    3.6256    1.0000 </r>
       <r>    4.2475    1.0000 </r>
       <r>    4.2515    1.0000 </r>
       <r>    4.2518    1.0000 </r>
       <r>    4.2578    1.0000 </r>
       <r>    5.1385    0.0000 </r>
       <r>    5.1410    0.0000 </r>
       <r>    5.1431    0.0000 </r>
       <r>    5.1464    0.0000 </r>
       <r>    5.7874    0.0000 </r>
       <r>    5.7974    0.0000 </r>
       <r>    5.7983    0.0000 </r>
       <r>    5.8027    0.0000 </r>
       <r>    6.1298    0.0000 </r>
       <r>    6.1427    0.0000 </r>
       <r>    6.1955    0.0000 </r>
       <r>    6.2024    0.0000 </r>
       <r>    6.2697    0.0000 </r>
       <r>    6.2750    0.0000 </r>
       <r>    6.3160    0.0000 </r>
       <r>    6.3202    0.0000 </r>
       <r>    7.1638    0.0000 </r>
       <r>    7.1783    0.0000 </r>
       <r>    7.2294    0.0000 </r>
       <r>    7.2595    0.0000 </r>
       <r>    7.8165    0.0000 </r>
       <r>    7.8612    0.0000 </r>
       <r>    7.9005    0.0000 </r>
       <r>    7.9385    0.0000 </r>
       <r>    8.0909    0.0000 </r>
       <r>    8.1083    0.0000 </r>
       <r>    8.2303    0.0000 </r>
       <r>    8.2476    0.0000 </r>
       <r>    8.5237    0.0000 </r>
       <r>    8.6355    0.0000 </r>
       <r>    8.7773    0.0000 </r>
       <r>    8.8274    0.0000 </r>
       <r>    8.8276    0.0000 </r>
       <r>    8.9076    0.0000 </r>
       <r>    8.9578    0.0000 </r>
       <r>    8.9848    0.0000 </r>
       <r>    9.0665    0.0000 </r>
       <r>    9.0911    0.0000 </r>
       <r>    9.1047    0.0000 </r>
       <r>    9.1300    0.0000 </r>
       <r>    9.1386    0.0000 </r>
       <r>    9.2171    0.0000 </r>
       <r>    9.2386    0.0000 </r>
       <r>    9.3127    0.0000 </r>
       <r>    9.4553    0.0000 </r>
       <r>    9.5486    0.0000 </r>
       <r>    9.5774    0.0000 </r>
       <r>    9.6485    0.0000 </r>
       <r>    9.7032    0.0000 </r>
       <r>    9.7055    0.0000 </r>
       <r>    9.7345    0.0000 </r>
       <r>    9.7566    0.0000 </r>
       <r>   10.2108    0.0000 </r>
       <r>   10.2592    0.0000 </r>
       <r>   10.2742    0.0000 </r>
       <r>   10.2960    0.0000 </r>
       <r>   10.4319    0.0000 </r>
       <r>   10.5480    0.0000 </r>
       <r>   10.5768    0.0000 </r>
       <r>   10.6235    0.0000 </r>
       <r>   10.6326    0.0000 </r>
       <r>   10.7320    0.0000 </r>
       <r>   10.9459    0.0000 </r>
       <r>   11.3023    0.0000 </r>
       <r>   11.4167    0.0000 </r>
       <r>   11.4479    0.0000 </r>
       <r>   11.5622    0.0000 </r>
       <r>   11.6523    0.0000 </r>
       <r>   11.7292    0.0000 </r>
       <r>   11.8185    0.0000 </r>
       <r>   11.8976    0.0000 </r>
       <r>   11.8992    0.0000 </r>
      </set>
      <set comment="kpoint 2">
       <r>  -40.2543    1.0000 </r>
       <r>  -40.2476    1.0000 </r>
       <r>  -40.2415    1.0000 </r>
       <r>  -40.1541    1.0000 </r>
       <r>  -39.7954    1.0000 </r>
       <r>  -39.7949    1.0000 </r>
       <r>  -39.7837    1.0000 </r>
       <r>  -39.7830    1.0000 </r>
       <r>  -39.4219    1.0000 </r>
       <r>  -39.3442    1.0000 </r>
       <r>  -39.3394    1.0000 </r>
       <r>  -39.3308    1.0000 </r>
       <r>  -18.9054    1.0000 </r>
       <r>  -18.9047    1.0000 </r>
       <r>  -18.8981    1.0000 </r>
       <r>  -18.8972    1.0000 </r>
       <r>  -18.8370    1.0000 </r>
       <r>  -18.8366    1.0000 </r>
       <r>  -18.8305    1.0000 </r>
       <r>  -18.8301    1.0000 </r>
       <r>  -18.8226    1.0000 </r>
       <r>  -18.8221    1.0000 </r>
       <r>  -18.8142    1.0000 </r>
       <r>  -18.8138    1.0000 </r>
       <r>  -18.7295    1.0000 </r>
       <r>  -18.7283    1.0000 </r>
       <r>  -18.7262    1.0000 </r>
       <r>  -18.7247    1.0000 </r>
       <r>  -18.7153    1.0000 </r>
       <r>  -18.7149    1.0000 </r>
       <r>  -18.7127    1.0000 </r>
       <r>  -18.7118    1.0000 </r>
       <r>  -18.6937    1.0000 </r>
       <r>  -18.6931    1.0000 </r>
       <r>  -18.6846    1.0000 </r>
       <r>  -18.6845    1.0000 </r>
       <r>  -18.6811    1.0000 </r>
       <r>  -18.6807    1.0000 </r>
       <r>  -18.6749    1.0000 </r>
       <r>  -18.6743    1.0000 </r>
       <r>  -18.6656    1.0000 </r>
       <r>  -18.6650    1.0000 </r>
       <r>  -18.6593    1.0000 </r>
       <r>  -18.6588    1.0000 </r>
       <r>  -18.5518    1.0000 </r>
       <r>  -18.5509    1.0000 </r>
       <r>  -18.5436    1.0000 </r>
       <r>  -18.5429    1.0000 </r>
       <r>  -18.5382    1.0000 </r>
       <r>  -18.5369    1.0000 </r>
       <r>  -18.5356    1.0000 </r>
       <r>  -18.5349    1.0000 </r>
       <r>  -18.5274    1.0000 </r>
       <r>  -18.5264    1.0000 </r>
       <r>  -18.5245    1.0000 </r>
       <r>  -18.5234    1.0000 </r>
       <r>  -18.5217    1.0000 </r>
       <r>  -18.5216    1.0000 </r>
       <r>  -18.5197    1.0000 </r>
       <r>  -18.5189    1.0000 </r>
       <r>  -18.5123    1.0000 </r>
       <r>  -18.5119    1.0000 </r>
       <r>  -18.5106    1.0000 </r>
       <r>  -18.5104    1.0000 </r>
       <r>  -18.3911    1.0000 </r>
       <r>  -18.3898    1.0000 </r>
       <r>  -18.3755    1.0000 </r>
       <r>  -18.3753    1.0000 </r>
       <r>  -18.3751    1.0000 </r>
       <r>  -18.3747    1.0000 </r>
       <r>  -18.3730    1.0000 </r>
       <r>  -18.3716    1.0000 </r>
       <r>  -18.3645    1.0000 </r>
       <r>  -18.3637    1.0000 </r>
       <r>  -18.3634    1.0000 </r>
       <r>  -18.3631    1.0000 </r>
       <r>  -18.3606    1.0000 </r>
       <r>  -18.3603    1.0000 </r>
       <r>  -18.3470    1.0000 </r>
       <r>  -18.3468    1.0000 </r>
       <r>  -18.2806    1.0000 </r>
       <r>  -18.2800    1.0000 </r>
       <r>  -18.2716    1.0000 </r>
       <r>  -18.2711    1.0000 </r>
       <r>  -18.1631    1.0000 </r>
       <r>  -18.1619    1.0000 </r>
       <r>  -18.1594    1.0000 </r>
       <r>  -18.1585    1.0000 </r>
       <r>  -18.1495    1.0000 </r>
       <r>  -18.1486    1.0000 </r>
       <r>  -18.1459    1.0000 </r>
       <r>  -18.1447    1.0000 </r>
       <r>  -13.5551    1.0000 </r>
       <r>  -13.5236    1.0000 </r>
       <r>  -13.4443    1.0000 </r>
       <r>  -13.4193    1.0000 </r>
       <r>  -12.8339    1.0000 </r>
       <r>  -12.7626    1.0000 </r>
       <r>  -12.7547    1.0000 </r>
       <r>  -12.6940    1.0000 </r>
       <r>  -12.6553    1.0000 </r>
       <r>  -12.5743    1.0000 </r>
       <r>  -12.5690    1.0000 </r>
       <r>  -12.5054    1.0000 </r>
       <r>  -11.9493    1.0000 </r>
       <r>  -11.9262    1.0000 </r>
       <r>  -11.9027    1.0000 </r>
       <r>  -11.8666    1.0000 </r>
       <r>   -9.1856    1.0000 </r>
       <r>   -8.9656    1.0000 </r>
       <r>   -8.9122    1.0000 </r>
       <r>   -8.6893    1.0000 </r>
       <r>   -8.3950    1.0000 </r>
       <r>   -8.3930    1.0000 </r>
       <r>   -8.2487    1.0000 </r>
       <r>   -8.2464    1.0000 </r>
       <r>   -8.1454    1.0000 </r>
       <r>   -8.1436    1.0000 </r>
       <r>   -8.0014    1.0000 </r>
       <r>   -7.9982    1.0000 </r>
       <r>   -7.7380    1.0000 </r>
       <r>   -7.6259    1.0000 </r>
       <r>   -7.5754    1.0000 </r>
       <r>   -7.4625    1.0000 </r>
       <r>   -6.0346    1.0000 </r>
       <r>   -6.0036    1.0000 </r>
       <r>   -5.9394    1.0000 </r>
       <r>   -5.8945    1.0000 </r>
       <r>   -5.7537    1.0000 </r>
       <r>   -5.7170    1.0000 </r>
       <r>   -5.6694    1.0000 </r>
       <r>   -5.6385    1.0000 </r>
       <r>   -5.6022    1.0000 </r>
       <r>   -5.5475    1.0000 </r>
       <r>   -5.4647    1.0000 </r>
       <r>   -5.3756    1.0000 </r>
       <r>   -4.4952    1.0000 </r>
       <r>   -4.3350    1.0000 </r>
       <r>   -4.2730    1.0000 </r>
       <r>   -4.0973    1.0000 </r>
       <r>   -1.2434    1.0000 </r>
       <r>   -0.9780    1.0000 </r>
       <r>   -0.9033    1.0000 </r>
       <r>   -0.6611    1.0000 </r>
       <r>   -0.4490    1.0000 </r>
       <r>   -0.2349    1.0000 </r>
       <r>   -0.0905    1.0000 </r>
       <r>    0.0047    1.0000 </r>
       <r>    0.0172    1.0000 </r>
       <r>    0.1003    1.0000 </r>
       <r>    0.1366    1.0000 </r>
       <r>    0.1928    1.0000 </r>
       <r>    0.2416    1.0000 </r>
       <r>    0.2688    1.0000 </r>
       <r>    0.2825    1.0000 </r>
       <r>    0.3378    1.0000 </r>
       <r>    0.4071    1.0000 </r>
       <r>    0.4188    1.0000 </r>
       <r>    0.5284    1.0000 </r>
       <r>    0.5321    1.0000 </r>
       <r>    0.6171    1.0000 </r>
       <r>    0.6388    1.0000 </r>
       <r>    0.6605    1.0000 </r>
       <r>    0.7055    1.0000 </r>
       <r>    0.7574    1.0000 </r>
       <r>    0.8576    1.0000 </r>
       <r>    0.9052    1.0000 </r>
       <r>    0.9880    1.0000 </r>
       <r>    1.0590    1.0000 </r>
       <r>    1.0902    1.0000 </r>
       <r>    1.0962    1.0000 </r>
       <r>    1.1218    1.0000 </r>
       <r>    1.1899    1.0000 </r>
       <r>    1.2434    1.0000 </r>
       <r>    1.2648    1.0000 </r>
       <r>    1.2822    1.0000 </r>
       <r>    1.3159    1.0000 </r>
       <r>    1.3326    1.0000 </r>
       <r>    1.3796    1.0000 </r>
       <r>    1.4594    1.0000 </r>
       <r>    1.4931    1.0000 </r>
       <r>    1.5096    1.0000 </r>
       <r>    1.5635    1.0000 </r>
       <r>    1.6035    1.0000 </r>
       <r>    1.6550    1.0000 </r>
       <r>    1.7099    1.0000 </r>
       <r>    1.7319    1.0000 </r>
       <r>    1.7424    1.0000 </r>
       <r>    1.8347    1.0000 </r>
       <r>    1.8817    1.0000 </r>
       <r>    1.9027    1.0000 </r>
       <r>    2.0009    1.0000 </r>
       <r>    2.0132    1.0000 </r>
       <r>    2.0836    1.0000 </r>
       <r>    2.1122    1.0000 </r>
       <r>    2.1269    1.0000 </r>
       <r>    2.1749    1.0000 </r>
       <r>    2.2022    1.0000 </r>
       <r>    2.2754    1.0000 </r>
       <r>    2.3296    1.0000 </r>
       <r>    2.3672    1.0000 </r>
       <r>    2.3924    1.0000 </r>
       <r>    2.4210    1.0000 </r>
       <r>    2.4780    1.0000 </r>
       <r>    2.5197    1.0000 </r>
       <r>    2.5449    1.0000 </r>
       <r>    2.5818    1.0000 </r>
       <r>    2.6043    1.0000 </r>
       <r>    2.6202    1.0000 </r>
       <r>    2.6295    1.0000 </r>
       <r>    2.7432    1.0000 </r>
       <r>    2.8005    1.0000 </r>
       <r>    2.8231    1.0000 </r>
       <r>    2.8305    1.0000 </r>
       <r>    2.8818    1.0000 </r>
       <r>    2.9178    1.0000 </r>
       <r>    2.9190    1.0000 </r>
       <r>    2.9441    1.0000 </r>
       <r>    3.0898    1.0000 </r>
       <r>    3.1443    1.0000 </r>
       <r>    3.1523    1.0000 </r>
       <r>    3.1590    1.0000 </r>
       <r>    3.1657    1.0000 </r>
       <r>    3.2268    1.0000 </r>
       <r>    3.3037    1.0000 </r>
       <r>    3.3665    1.0000 </r>
       <r>    3.4190    1.0000 </r>
       <r>    3.4253    1.0000 </r>
       <r>    3.4775    1.0000 </r>
       <r>    3.4983    1.0000 </r>
       <r>    3.6107    1.0000 </r>
       <r>    3.6251    1.0000 </r>
       <r>    3.6625    1.0000 </r>
       <r>    3.6892    1.0000 </r>
       <r>    3.7344    1.0000 </r>
       <r>    3.7957    1.0000 </r>
       <r>    5.5594    0.0000 </r>
       <r>    5.5777    0.0000 </r>
       <r>    5.6375    0.0000 </r>
       <r>    5.6486    0.0000 </r>
       <r>    5.9020    0.0000 </r>
       <r>    5.9039    0.0000 </r>
       <r>    5.9481    0.0000 </r>
       <r>    5.9586    0.0000 </r>
       <r>    7.2291    0.0000 </r>
       <r>    7.2423    0.0000 </r>
       <r>    7.2515    0.0000 </r>
       <r>    7.2786    0.0000 </r>
       <r>    7.3380    0.0000 </r>
       <r>    7.3953    0.0000 </r>
       <r>    7.4114    0.0000 </r>
       <r>    7.5351    0.0000 </r>
       <r>    7.5800    0.0000 </r>
       <r>    7.5934    0.0000 </r>
       <r>    7.6390    0.0000 </r>
       <r>    7.6929    0.0000 </r>
       <r>    7.8101    0.0000 </r>
       <r>    7.8200    0.0000 </r>
       <r>    7.8669    0.0000 </r>
       <r>    7.9011    0.0000 </r>
       <r>    7.9215    0.0000 </r>
       <r>    7.9499    0.0000 </r>
       <r>    7.9572    0.0000 </r>
       <r>    8.0140    0.0000 </r>
       <r>    8.0564    0.0000 </r>
       <r>    8.0797    0.0000 </r>
       <r>    8.0869    0.0000 </r>
       <r>    8.1187    0.0000 </r>
       <r>    8.2848    0.0000 </r>
       <r>    8.4499    0.0000 </r>
       <r>    8.5396    0.0000 </r>
       <r>    8.6355    0.0000 </r>
       <r>    8.6949    0.0000 </r>
       <r>    8.7578    0.0000 </r>
       <r>    8.7651    0.0000 </r>
       <r>    8.7859    0.0000 </r>
       <r>    8.8145    0.0000 </r>
       <r>    8.9286    0.0000 </r>
       <r>    8.9745    0.0000 </r>
       <r>    8.9800    0.0000 </r>
       <r>    9.0763    0.0000 </r>
       <r>    9.3605    0.0000 </r>
       <r>    9.3711    0.0000 </r>
       <r>    9.4064    0.0000 </r>
       <r>    9.6743    0.0000 </r>
       <r>    9.6779    0.0000 </r>
       <r>   10.2112    0.0000 </r>
       <r>   10.2918    0.0000 </r>
       <r>   10.3835    0.0000 </r>
       <r>   10.4962    0.0000 </r>
       <r>   10.5095    0.0000 </r>
       <r>   10.6135    0.0000 </r>
       <r>   10.6762    0.0000 </r>
       <r>   10.7652    0.0000 </r>
       <r>   10.7718    0.0000 </r>
       <r>   10.8281    0.0000 </r>
       <r>   10.8887    0.0000 </r>
       <r>   10.9060    0.0000 </r>
       <r>   10.9470    0.0000 </r>
       <r>   11.1045    0.0000 </r>
       <r>   11.2664    0.0000 </r>
       <r>   11.3087    0.0000 </r>
       <r>   11.3124    0.0000 </r>
       <r>   11.3353    0.0000 </r>
       <r>   11.3892    0.0000 </r>
       <r>   11.4811    0.0000 </r>
       <r>   11.5354    0.0000 </r>
       <r>   11.5781    0.0000 </r>
      </set>
      <set comment="kpoint 3">
       <r>  -40.2543    1.0000 </r>
       <r>  -40.2476    1.0000 </r>
       <r>  -40.2415    1.0000 </r>
       <r>  -40.1541    1.0000 </r>
       <r>  -39.7954    1.0000 </r>
       <r>  -39.7949    1.0000 </r>
       <r>  -39.7837    1.0000 </r>
       <r>  -39.7830    1.0000 </r>
       <r>  -39.4219    1.0000 </r>
       <r>  -39.3442    1.0000 </r>
       <r>  -39.3394    1.0000 </r>
       <r>  -39.3308    1.0000 </r>
       <r>  -18.9060    1.0000 </r>
       <r>  -18.9042    1.0000 </r>
       <r>  -18.8986    1.0000 </r>
       <r>  -18.8967    1.0000 </r>
       <r>  -18.8371    1.0000 </r>
       <r>  -18.8367    1.0000 </r>
       <r>  -18.8305    1.0000 </r>
       <r>  -18.8301    1.0000 </r>
       <r>  -18.8225    1.0000 </r>
       <r>  -18.8221    1.0000 </r>
       <r>  -18.8142    1.0000 </r>
       <r>  -18.8138    1.0000 </r>
       <r>  -18.7295    1.0000 </r>
       <r>  -18.7283    1.0000 </r>
       <r>  -18.7262    1.0000 </r>
       <r>  -18.7247    1.0000 </r>
       <r>  -18.7153    1.0000 </r>
       <r>  -18.7149    1.0000 </r>
       <r>  -18.7127    1.0000 </r>
       <r>  -18.7118    1.0000 </r>
       <r>  -18.6939    1.0000 </r>
       <r>  -18.6933    1.0000 </r>
       <r>  -18.6848    1.0000 </r>
       <r>  -18.6844    1.0000 </r>
       <r>  -18.6812    1.0000 </r>
       <r>  -18.6806    1.0000 </r>
       <r>  -18.6746    1.0000 </r>
       <r>  -18.6743    1.0000 </r>
       <r>  -18.6653    1.0000 </r>
       <r>  -18.6651    1.0000 </r>
       <r>  -18.6592    1.0000 </r>
       <r>  -18.6589    1.0000 </r>
       <r>  -18.5516    1.0000 </r>
       <r>  -18.5507    1.0000 </r>
       <r>  -18.5437    1.0000 </r>
       <r>  -18.5430    1.0000 </r>
       <r>  -18.5382    1.0000 </r>
       <r>  -18.5370    1.0000 </r>
       <r>  -18.5355    1.0000 </r>
       <r>  -18.5351    1.0000 </r>
       <r>  -18.5276    1.0000 </r>
       <r>  -18.5262    1.0000 </r>
       <r>  -18.5244    1.0000 </r>
       <r>  -18.5234    1.0000 </r>
       <r>  -18.5218    1.0000 </r>
       <r>  -18.5214    1.0000 </r>
       <r>  -18.5196    1.0000 </r>
       <r>  -18.5189    1.0000 </r>
       <r>  -18.5123    1.0000 </r>
       <r>  -18.5120    1.0000 </r>
       <r>  -18.5110    1.0000 </r>
       <r>  -18.5100    1.0000 </r>
       <r>  -18.3911    1.0000 </r>
       <r>  -18.3898    1.0000 </r>
       <r>  -18.3755    1.0000 </r>
       <r>  -18.3753    1.0000 </r>
       <r>  -18.3750    1.0000 </r>
       <r>  -18.3746    1.0000 </r>
       <r>  -18.3730    1.0000 </r>
       <r>  -18.3717    1.0000 </r>
       <r>  -18.3644    1.0000 </r>
       <r>  -18.3637    1.0000 </r>
       <r>  -18.3635    1.0000 </r>
       <r>  -18.3631    1.0000 </r>
       <r>  -18.3606    1.0000 </r>
       <r>  -18.3604    1.0000 </r>
       <r>  -18.3469    1.0000 </r>
       <r>  -18.3468    1.0000 </r>
       <r>  -18.2808    1.0000 </r>
       <r>  -18.2798    1.0000 </r>
       <r>  -18.2718    1.0000 </r>
       <r>  -18.2709    1.0000 </r>
       <r>  -18.1631    1.0000 </r>
       <r>  -18.1619    1.0000 </r>
       <r>  -18.1594    1.0000 </r>
       <r>  -18.1585    1.0000 </r>
       <r>  -18.1495    1.0000 </r>
       <r>  -18.1486    1.0000 </r>
       <r>  -18.1459    1.0000 </r>
       <r>  -18.1447    1.0000 </r>
       <r>  -13.5551    1.0000 </r>
       <r>  -13.5233    1.0000 </r>
       <r>  -13.4448    1.0000 </r>
       <r>  -13.4192    1.0000 </r>
       <r>  -12.8333    1.0000 </r>
       <r>  -12.7611    1.0000 </r>
       <r>  -12.7563    1.0000 </r>
       <r>  -12.6943    1.0000 </r>
       <r>  -12.6553    1.0000 </r>
       <r>  -12.5736    1.0000 </r>
       <r>  -12.5690    1.0000 </r>
       <r>  -12.5060    1.0000 </r>
       <r>  -11.9488    1.0000 </r>
       <r>  -11.9252    1.0000 </r>
       <r>  -11.9053    1.0000 </r>
       <r>  -11.8672    1.0000 </r>
       <r>   -9.2979    1.0000 </r>
       <r>   -9.0200    1.0000 </r>
       <r>   -8.5568    1.0000 </r>
       <r>   -8.4997    1.0000 </r>
       <r>   -8.4436    1.0000 </r>
       <r>   -8.4273    1.0000 </r>
       <r>   -8.2993    1.0000 </r>
       <r>   -8.2503    1.0000 </r>
       <r>   -8.1786    1.0000 </r>
       <r>   -8.1732    1.0000 </r>
       <r>   -7.9734    1.0000 </r>
       <r>   -7.9730    1.0000 </r>
       <r>   -7.9586    1.0000 </r>
       <r>   -7.9583    1.0000 </r>
       <r>   -7.3222    1.0000 </r>
       <r>   -7.3208    1.0000 </r>
       <r>   -6.3377    1.0000 </r>
       <r>   -6.3326    1.0000 </r>
       <r>   -6.3213    1.0000 </r>
       <r>   -6.3201    1.0000 </r>
       <r>   -5.5541    1.0000 </r>
       <r>   -5.4744    1.0000 </r>
       <r>   -5.3935    1.0000 </r>
       <r>   -5.3603    1.0000 </r>
       <r>   -5.3457    1.0000 </r>
       <r>   -5.1505    1.0000 </r>
       <r>   -5.1279    1.0000 </r>
       <r>   -5.0711    1.0000 </r>
       <r>   -5.0312    1.0000 </r>
       <r>   -4.9271    1.0000 </r>
       <r>   -3.8351    1.0000 </r>
       <r>   -3.5268    1.0000 </r>
       <r>   -1.3048    1.0000 </r>
       <r>   -1.2812    1.0000 </r>
       <r>   -1.1422    1.0000 </r>
       <r>   -1.1038    1.0000 </r>
       <r>   -0.4136    1.0000 </r>
       <r>   -0.3892    1.0000 </r>
       <r>   -0.3697    1.0000 </r>
       <r>   -0.3672    1.0000 </r>
       <r>   -0.3423    1.0000 </r>
       <r>   -0.3268    1.0000 </r>
       <r>   -0.2515    1.0000 </r>
       <r>   -0.2117    1.0000 </r>
       <r>   -0.0968    1.0000 </r>
       <r>   -0.0574    1.0000 </r>
       <r>   -0.0527    1.0000 </r>
       <r>    0.0253    1.0000 </r>
       <r>    0.2506    1.0000 </r>
       <r>    0.3530    1.0000 </r>
       <r>    0.4349    1.0000 </r>
       <r>    0.4904    1.0000 </r>
       <r>    0.6117    1.0000 </r>
       <r>    0.6230    1.0000 </r>
       <r>    0.7303    1.0000 </r>
       <r>    0.7578    1.0000 </r>
       <r>    0.7751    1.0000 </r>
       <r>    0.8325    1.0000 </r>
       <r>    0.8411    1.0000 </r>
       <r>    0.9826    1.0000 </r>
       <r>    1.0075    1.0000 </r>
       <r>    1.1174    1.0000 </r>
       <r>    1.1631    1.0000 </r>
       <r>    1.2078    1.0000 </r>
       <r>    1.2219    1.0000 </r>
       <r>    1.2926    1.0000 </r>
       <r>    1.3310    1.0000 </r>
       <r>    1.3575    1.0000 </r>
       <r>    1.3941    1.0000 </r>
       <r>    1.4188    1.0000 </r>
       <r>    1.5031    1.0000 </r>
       <r>    1.5146    1.0000 </r>
       <r>    1.6312    1.0000 </r>
       <r>    1.7147    1.0000 </r>
       <r>    1.7880    1.0000 </r>
       <r>    1.7893    1.0000 </r>
       <r>    1.8319    1.0000 </r>
       <r>    1.9159    1.0000 </r>
       <r>    1.9769    1.0000 </r>
       <r>    1.9919    1.0000 </r>
       <r>    2.0280    1.0000 </r>
       <r>    2.0999    1.0000 </r>
       <r>    2.1154    1.0000 </r>
       <r>    2.1500    1.0000 </r>
       <r>    2.1529    1.0000 </r>
       <r>    2.2878    1.0000 </r>
       <r>    2.3733    1.0000 </r>
       <r>    2.4047    1.0000 </r>
       <r>    2.4113    1.0000 </r>
       <r>    2.4891    1.0000 </r>
       <r>    2.5229    1.0000 </r>
       <r>    2.5616    1.0000 </r>
       <r>    2.5673    1.0000 </r>
       <r>    2.5734    1.0000 </r>
       <r>    2.5926    1.0000 </r>
       <r>    2.6080    1.0000 </r>
       <r>    2.6084    1.0000 </r>
       <r>    2.6199    1.0000 </r>
       <r>    2.6218    1.0000 </r>
       <r>    2.7242    1.0000 </r>
       <r>    2.7398    1.0000 </r>
       <r>    2.8176    1.0000 </r>
       <r>    2.8452    1.0000 </r>
       <r>    2.9005    1.0000 </r>
       <r>    2.9152    1.0000 </r>
       <r>    2.9831    1.0000 </r>
       <r>    2.9950    1.0000 </r>
       <r>    3.0362    1.0000 </r>
       <r>    3.0708    1.0000 </r>
       <r>    3.0827    1.0000 </r>
       <r>    3.0998    1.0000 </r>
       <r>    3.1071    1.0000 </r>
       <r>    3.1582    1.0000 </r>
       <r>    3.2159    1.0000 </r>
       <r>    3.2860    1.0000 </r>
       <r>    3.3553    1.0000 </r>
       <r>    3.4113    1.0000 </r>
       <r>    3.4536    1.0000 </r>
       <r>    3.4632    1.0000 </r>
       <r>    3.5039    1.0000 </r>
       <r>    3.5154    1.0000 </r>
       <r>    3.5214    1.0000 </r>
       <r>    3.5967    1.0000 </r>
       <r>    3.6526    1.0000 </r>
       <r>    4.2991    1.0000 </r>
       <r>    4.3005    1.0000 </r>
       <r>    4.3045    1.0000 </r>
       <r>    4.3098    1.0000 </r>
       <r>    5.2041    0.0000 </r>
       <r>    5.2084    0.0000 </r>
       <r>    5.2110    0.0000 </r>
       <r>    5.2133    0.0000 </r>
       <r>    5.8003    0.0000 </r>
       <r>    5.8034    0.0000 </r>
       <r>    5.8059    0.0000 </r>
       <r>    5.8122    0.0000 </r>
       <r>    6.1944    0.0000 </r>
       <r>    6.2018    0.0000 </r>
       <r>    6.2451    0.0000 </r>
       <r>    6.2505    0.0000 </r>
       <r>    6.2777    0.0000 </r>
       <r>    6.2845    0.0000 </r>
       <r>    6.3253    0.0000 </r>
       <r>    6.3321    0.0000 </r>
       <r>    6.7663    0.0000 </r>
       <r>    6.8622    0.0000 </r>
       <r>    6.9710    0.0000 </r>
       <r>    7.0149    0.0000 </r>
       <r>    7.2797    0.0000 </r>
       <r>    7.3115    0.0000 </r>
       <r>    7.5562    0.0000 </r>
       <r>    7.6580    0.0000 </r>
       <r>    7.8075    0.0000 </r>
       <r>    7.8519    0.0000 </r>
       <r>    7.9699    0.0000 </r>
       <r>    8.0253    0.0000 </r>
       <r>    8.1012    0.0000 </r>
       <r>    8.3592    0.0000 </r>
       <r>    8.4272    0.0000 </r>
       <r>    8.4978    0.0000 </r>
       <r>    8.7073    0.0000 </r>
       <r>    8.8464    0.0000 </r>
       <r>    8.9131    0.0000 </r>
       <r>    8.9370    0.0000 </r>
       <r>    9.0142    0.0000 </r>
       <r>    9.0625    0.0000 </r>
       <r>    9.1262    0.0000 </r>
       <r>    9.1319    0.0000 </r>
       <r>    9.1566    0.0000 </r>
       <r>    9.1711    0.0000 </r>
       <r>    9.1936    0.0000 </r>
       <r>    9.2682    0.0000 </r>
       <r>    9.5097    0.0000 </r>
       <r>    9.5425    0.0000 </r>
       <r>    9.7457    0.0000 </r>
       <r>    9.7629    0.0000 </r>
       <r>    9.7687    0.0000 </r>
       <r>    9.8040    0.0000 </r>
[...]
       <r>   11.3750    0.0000 </r>
       <r>   11.3862    0.0000 </r>
       <r>   11.4004    0.0000 </r>
       <r>   11.5541    0.0000 </r>
      </set>
     </set>
    </set>
   </array>
  </eigenvalues>
  <separator name="orbital magnetization" >
   <v name="MAGDIPOLOUT">      0.00000000      0.00000000      0.00000000</v>
  </separator>
  <dos>
   <i name="efermi">      4.39429427 </i>
   <total>
    <array>
     <dimension dim="1">gridpoints</dimension>
     <dimension dim="2">spin</dimension>
     <field>energy</field>
     <field>total</field>
     <field>integrated</field>
     <set>
      <set comment="spin 1">
       <r>   -42.8830     0.0000     0.0000 </r>
       <r>   -42.6902     0.0000     0.0000 </r>
       <r>   -42.4975     0.0000     0.0000 </r>
       <r>   -42.3047     0.0000     0.0000 </r>
       <r>   -42.1119     0.0000     0.0000 </r>
       <r>   -41.9192     0.0000     0.0000 </r>
       <r>   -41.7264     0.0000     0.0000 </r>
       <r>   -41.5336     0.0000     0.0000 </r>
       <r>   -41.3408     0.0000     0.0000 </r>
       <r>   -41.1481     0.0000     0.0000 </r>
       <r>   -40.9553     0.0000     0.0000 </r>
       <r>   -40.7625     0.0000     0.0000 </r>
       <r>   -40.5697     0.0000     0.0000 </r>
       <r>   -40.3770     0.0000     0.0000 </r>
       <r>   -40.1842     0.0000     6.0000 </r>
       <r>   -39.9914     0.0000     8.0000 </r>
       <r>   -39.7987     0.0000     8.0000 </r>
       <r>   -39.6059     0.0000    16.0000 </r>
       <r>   -39.4131     0.0000    18.0000 </r>
       <r>   -39.2203     0.0000    24.0000 </r>
       <r>   -39.0276     0.0000    24.0000 </r>
       <r>   -38.8348     0.0000    24.0000 </r>
       <r>   -38.6420     0.0000    24.0000 </r>
       <r>   -38.4493     0.0000    24.0000 </r>
       <r>   -38.2565     0.0000    24.0000 </r>
       <r>   -38.0637     0.0000    24.0000 </r>
       <r>   -37.8709     0.0000    24.0000 </r>
       <r>   -37.6782     0.0000    24.0000 </r>
       <r>   -37.4854     0.0000    24.0000 </r>
       <r>   -37.2926     0.0000    24.0000 </r>
       <r>   -37.0999     0.0000    24.0000 </r>
       <r>   -36.9071     0.0000    24.0000 </r>
       <r>   -36.7143     0.0000    24.0000 </r>
       <r>   -36.5215     0.0000    24.0000 </r>
       <r>   -36.3288     0.0000    24.0000 </r>
       <r>   -36.1360     0.0000    24.0000 </r>
       <r>   -35.9432     0.0000    24.0000 </r>
       <r>   -35.7505     0.0000    24.0000 </r>
       <r>   -35.5577     0.0000    24.0000 </r>
       <r>   -35.3649     0.0000    24.0000 </r>
       <r>   -35.1721     0.0000    24.0000 </r>
       <r>   -34.9794     0.0000    24.0000 </r>
       <r>   -34.7866     0.0000    24.0000 </r>
       <r>   -34.5938     0.0000    24.0000 </r>
       <r>   -34.4010     0.0000    24.0000 </r>
       <r>   -34.2083     0.0000    24.0000 </r>
       <r>   -34.0155     0.0000    24.0000 </r>
       <r>   -33.8227     0.0000    24.0000 </r>
       <r>   -33.6300     0.0000    24.0000 </r>
       <r>   -33.4372     0.0000    24.0000 </r>
       <r>   -33.2444     0.0000    24.0000 </r>
       <r>   -33.0516     0.0000    24.0000 </r>
       <r>   -32.8589     0.0000    24.0000 </r>
       <r>   -32.6661     0.0000    24.0000 </r>
       <r>   -32.4733     0.0000    24.0000 </r>
       <r>   -32.2806     0.0000    24.0000 </r>
       <r>   -32.0878     0.0000    24.0000 </r>
       <r>   -31.8950     0.0000    24.0000 </r>
       <r>   -31.7022     0.0000    24.0000 </r>
       <r>   -31.5095     0.0000    24.0000 </r>
       <r>   -31.3167     0.0000    24.0000 </r>
       <r>   -31.1239     0.0000    24.0000 </r>
       <r>   -30.9312     0.0000    24.0000 </r>
       <r>   -30.7384     0.0000    24.0000 </r>
       <r>   -30.5456     0.0000    24.0000 </r>
       <r>   -30.3528     0.0000    24.0000 </r>
       <r>   -30.1601     0.0000    24.0000 </r>
       <r>   -29.9673     0.0000    24.0000 </r>
       <r>   -29.7745     0.0000    24.0000 </r>
       <r>   -29.5818     0.0000    24.0000 </r>
       <r>   -29.3890     0.0000    24.0000 </r>
       <r>   -29.1962     0.0000    24.0000 </r>
       <r>   -29.0034     0.0000    24.0000 </r>
       <r>   -28.8107     0.0000    24.0000 </r>
       <r>   -28.6179     0.0000    24.0000 </r>
       <r>   -28.4251     0.0000    24.0000 </r>
       <r>   -28.2323     0.0000    24.0000 </r>
       <r>   -28.0396     0.0000    24.0000 </r>
       <r>   -27.8468     0.0000    24.0000 </r>
       <r>   -27.6540     0.0000    24.0000 </r>
       <r>   -27.4613     0.0000    24.0000 </r>
       <r>   -27.2685     0.0000    24.0000 </r>
       <r>   -27.0757     0.0000    24.0000 </r>
       <r>   -26.8829     0.0000    24.0000 </r>
       <r>   -26.6902     0.0000    24.0000 </r>
       <r>   -26.4974     0.0000    24.0000 </r>
       <r>   -26.3046     0.0000    24.0000 </r>
       <r>   -26.1119     0.0000    24.0000 </r>
       <r>   -25.9191     0.0000    24.0000 </r>
       <r>   -25.7263     0.0000    24.0000 </r>
       <r>   -25.5335     0.0000    24.0000 </r>
       <r>   -25.3408     0.0000    24.0000 </r>
       <r>   -25.1480     0.0000    24.0000 </r>
       <r>   -24.9552     0.0000    24.0000 </r>
       <r>   -24.7625     0.0000    24.0000 </r>
       <r>   -24.5697     0.0000    24.0000 </r>
       <r>   -24.3769     0.0000    24.0000 </r>
       <r>   -24.1841     0.0000    24.0000 </r>
       <r>   -23.9914     0.0000    24.0000 </r>
       <r>   -23.7986     0.0000    24.0000 </r>
       <r>   -23.6058     0.0000    24.0000 </r>
       <r>   -23.4130     0.0000    24.0000 </r>
       <r>   -23.2203     0.0000    24.0000 </r>
       <r>   -23.0275     0.0000    24.0000 </r>
       <r>   -22.8347     0.0000    24.0000 </r>
       <r>   -22.6420     0.0000    24.0000 </r>
       <r>   -22.4492     0.0000    24.0000 </r>
       <r>   -22.2564     0.0000    24.0000 </r>
       <r>   -22.0636     0.0000    24.0000 </r>
       <r>   -21.8709     0.0000    24.0000 </r>
       <r>   -21.6781     0.0000    24.0000 </r>
       <r>   -21.4853     0.0000    24.0000 </r>
       <r>   -21.2926     0.0000    24.0000 </r>
       <r>   -21.0998     0.0000    24.0000 </r>
       <r>   -20.9070     0.0000    24.0000 </r>
       <r>   -20.7142     0.0000    24.0000 </r>
       <r>   -20.5215     0.0000    24.0000 </r>
       <r>   -20.3287     0.0000    24.0000 </r>
       <r>   -20.1359     0.0000    24.0000 </r>
       <r>   -19.9432     0.0000    24.0000 </r>
       <r>   -19.7504     0.0000    24.0000 </r>
       <r>   -19.5576     0.0000    24.0000 </r>
       <r>   -19.3648     0.0000    24.0000 </r>
       <r>   -19.1721     0.0000    24.0000 </r>
       <r>   -18.9793     0.0000    24.0000 </r>
       <r>   -18.7865     0.0000    48.0000 </r>
       <r>   -18.5938     0.0000    88.0000 </r>
       <r>   -18.4010     0.0000   128.0000 </r>
       <r>   -18.2082     0.0000   168.0000 </r>
       <r>   -18.0154     0.0000   184.0000 </r>
       <r>   -17.8227     0.0000   184.0000 </r>
       <r>   -17.6299     0.0000   184.0000 </r>
       <r>   -17.4371     0.0000   184.0000 </r>
       <r>   -17.2443     0.0000   184.0000 </r>
       <r>   -17.0516     0.0000   184.0000 </r>
       <r>   -16.8588     0.0000   184.0000 </r>
       <r>   -16.6660     0.0000   184.0000 </r>
       <r>   -16.4733     0.0000   184.0000 </r>
       <r>   -16.2805     0.0000   184.0000 </r>
       <r>   -16.0877     0.0000   184.0000 </r>
       <r>   -15.8949     0.0000   184.0000 </r>
       <r>   -15.7022     0.0000   184.0000 </r>
       <r>   -15.5094     0.0000   184.0000 </r>
       <r>   -15.3166     0.0000   184.0000 </r>
       <r>   -15.1239     0.0000   184.0000 </r>
       <r>   -14.9311     0.0000   184.0000 </r>
       <r>   -14.7383     0.0000   184.0000 </r>
       <r>   -14.5455     0.0000   184.0000 </r>
       <r>   -14.3528     0.0000   184.0000 </r>
       <r>   -14.1600     0.0000   184.0000 </r>
       <r>   -13.9672     0.0000   184.0000 </r>
       <r>   -13.7745     0.0000   184.0000 </r>
       <r>   -13.5817     0.0000   184.0000 </r>
       <r>   -13.3889     0.0000   192.0000 </r>
       <r>   -13.1961     0.0000   192.0000 </r>
       <r>   -13.0034     0.0000   192.0000 </r>
       <r>   -12.8106     0.0000   194.0000 </r>
       <r>   -12.6178     0.0000   202.0000 </r>
       <r>   -12.4251     0.0000   208.0000 </r>
       <r>   -12.2323     0.0000   208.0000 </r>
       <r>   -12.0395     0.0000   208.0000 </r>
       <r>   -11.8467     0.0000   216.0000 </r>
       <r>   -11.6540     0.0000   216.0000 </r>
       <r>   -11.4612     0.0000   216.0000 </r>
       <r>   -11.2684     0.0000   216.0000 </r>
       <r>   -11.0756     0.0000   216.0000 </r>
       <r>   -10.8829     0.0000   216.0000 </r>
       <r>   -10.6901     0.0000   216.0000 </r>
       <r>   -10.4973     0.0000   216.0000 </r>
       <r>   -10.3046     0.0000   216.0000 </r>
       <r>   -10.1118     0.0000   216.0000 </r>
       <r>    -9.9190     0.0000   216.0000 </r>
       <r>    -9.7262     0.0000   216.0000 </r>
       <r>    -9.5335     0.0000   216.0000 </r>
       <r>    -9.3407     0.0000   216.0000 </r>
       <r>    -9.1479     9.8854   216.9516 </r>
       <r>    -8.9552     0.0000   220.0000 </r>
       <r>    -8.7624    19.9264   221.3918 </r>
       <r>    -8.5696    12.6146   224.4544 </r>
       <r>    -8.3768    32.5477   228.2033 </r>
       <r>    -8.1841     2.5618   232.0107 </r>
       <r>    -7.9913    40.9523   236.1918 </r>
       <r>    -7.7985    15.8052   240.7666 </r>
       <r>    -7.6058     0.0000   244.0000 </r>
       <r>    -7.4130    11.9898   247.4425 </r>
       <r>    -7.2202     0.0000   248.0000 </r>
       <r>    -7.0274     0.0000   248.0000 </r>
       <r>    -6.8347     0.0000   248.0000 </r>
       <r>    -6.6419     0.0000   248.0000 </r>
       <r>    -6.4491     0.0000   248.0000 </r>
       <r>    -6.2564    10.0681   248.4006 </r>
       <r>    -6.0636    29.4058   252.4760 </r>
       <r>    -5.8708     0.0000   256.0000 </r>
       <r>    -5.6780    33.0153   260.2796 </r>
       <r>    -5.4853    18.5649   264.2713 </r>
       <r>    -5.2925    20.7037   268.0702 </r>
       <r>    -5.0997     9.4674   271.1856 </r>
       <r>    -4.9069     5.1423   272.2820 </r>
       <r>    -4.7142     7.7578   273.7260 </r>
       <r>    -4.5214     9.7158   275.3757 </r>
       <r>    -4.3286     5.7627   276.9307 </r>
       <r>    -4.1359     7.2575   278.2741 </r>
       <r>    -3.9431     4.1784   279.4026 </r>
       <r>    -3.7503     1.2326   279.8857 </r>
       <r>    -3.5575     0.0388   279.9996 </r>
       <r>    -3.3648     0.0000   280.0000 </r>
       <r>    -3.1720     0.0000   280.0000 </r>
       <r>    -2.9792     0.0000   280.0000 </r>
       <r>    -2.7865     0.0000   280.0000 </r>
       <r>    -2.5937     0.0000   280.0000 </r>
       <r>    -2.4009     0.0000   280.0000 </r>
       <r>    -2.2081     0.0000   280.0000 </r>
       <r>    -2.0154     0.0000   280.0000 </r>
       <r>    -1.8226     0.0000   280.0000 </r>
       <r>    -1.6298     0.0000   280.0000 </r>
       <r>    -1.4371     0.0000   280.0000 </r>
       <r>    -1.2443     5.3594   280.2471 </r>
       <r>    -1.0515    10.0258   281.8335 </r>
       <r>    -0.8587    13.6871   284.2892 </r>
       <r>    -0.6660     8.7855   286.4903 </r>
       <r>    -0.4732     7.7055   287.7489 </r>
       <r>    -0.2804    23.3693   291.3269 </r>
       <r>    -0.0877    37.7160   297.1036 </r>
       <r>     0.1051    39.8996   304.2107 </r>
       <r>     0.2979    37.2388   310.6829 </r>
       <r>     0.4907    38.6274   317.6600 </r>
       <r>     0.6834    20.5251   324.9351 </r>
       <r>     0.8762    26.0816   331.6791 </r>
       <r>     1.0690    46.5002   340.0894 </r>
       <r>     1.2618    55.4933   348.5863 </r>
       <r>     1.4545    51.7858   358.3861 </r>
       <r>     1.6473    54.6189   367.2476 </r>
       <r>     1.8401    41.7761   375.1876 </r>
       <r>     2.0328    42.3211   383.0303 </r>
       <r>     2.2256    50.8036   392.1826 </r>
       <r>     2.4184    55.7407   401.2768 </r>
       <r>     2.6112    64.0251   413.0820 </r>
       <r>     2.8039    60.9853   424.1043 </r>
       <r>     2.9967    57.8220   435.0189 </r>
       <r>     3.1895    55.0288   446.3331 </r>
       <r>     3.3822    40.1418   454.4560 </r>
       <r>     3.5750    44.0546   462.3213 </r>
       <r>     3.7678    24.8097   467.2871 </r>
       <r>     3.9606    11.0857   470.2323 </r>
       <r>     4.1533     4.3701   471.7224 </r>
       <r>     4.3461     0.0000   472.0000 </r>
       <r>     4.5389     0.0000   472.0000 </r>
       <r>     4.7316     0.0000   472.0000 </r>
       <r>     4.9244     0.0000   472.0000 </r>
       <r>     5.1172     0.0000   472.0000 </r>
       <r>     5.3100     3.2720   472.2246 </r>
       <r>     5.5027     7.9709   473.3081 </r>
       <r>     5.6955     9.0274   475.1477 </r>
       <r>     5.8883    25.4351   478.4606 </r>
       <r>     6.0810    13.0659   481.5562 </r>
       <r>     6.2738    11.5993   483.8777 </r>
       <r>     6.4666    13.4062   486.2689 </r>
       <r>     6.6594    15.4505   489.0507 </r>
       <r>     6.8521    17.4423   492.2180 </r>
       <r>     7.0449    20.8975   495.8647 </r>
       <r>     7.2377    31.6384   500.7491 </r>
       <r>     7.4305    38.8273   507.3821 </r>
       <r>     7.6232    20.7368   513.5141 </r>
       <r>     7.8160    49.3949   520.1195 </r>
       <r>     8.0088    44.8287   528.4122 </r>
       <r>     8.2015    23.3924   534.8128 </r>
       <r>     8.3943    19.4576   538.8163 </r>
       <r>     8.5871    23.6588   542.7087 </r>
       <r>     8.7799    28.1723   548.0624 </r>
       <r>     8.9726    41.6913   556.0920 </r>
       <r>     9.1654    19.0499   561.8301 </r>
       <r>     9.3582    13.5033   564.7675 </r>
       <r>     9.5509    16.8588   567.3352 </r>
       <r>     9.7437    16.9327   571.1844 </r>
       <r>     9.9365     3.3968   572.2064 </r>
       <r>    10.1293     8.8463   573.3226 </r>
       <r>    10.3220    23.5538   576.7140 </r>
       <r>    10.5148    28.1787   582.2613 </r>
       <r>    10.7076    32.9840   588.9116 </r>
       <r>    10.9003    37.6806   596.2719 </r>
       <r>    11.0931    13.4241   599.6175 </r>
       <r>    11.2859    28.9579   603.7519 </r>
       <r>    11.4787    22.3202   608.6744 </r>
       <r>    11.6714    15.7561   612.4062 </r>
       <r>    11.8642     8.4449   614.7227 </r>
       <r>    12.0570     2.7817   615.7760 </r>
       <r>    12.2497     0.1285   615.9971 </r>
       <r>    12.4425     0.0000   616.0000 </r>
       <r>    12.6353     0.0000   616.0000 </r>
       <r>    12.8281     0.0000   616.0000 </r>
       <r>    13.0208     0.0000   616.0000 </r>
       <r>    13.2136     0.0000   616.0000 </r>
       <r>    13.4064     0.0000   616.0000 </r>
       <r>    13.5992     0.0000   616.0000 </r>
       <r>    13.7919     0.0000   616.0000 </r>
       <r>    13.9847     0.0000   616.0000 </r>
       <r>    14.1775     0.0000   616.0000 </r>
       <r>    14.3702     0.0000   616.0000 </r>
       <r>    14.5630     0.0000   616.0000 </r>
       <r>    14.7558     0.0000   616.0000 </r>
       <r>    14.9486     0.0000   616.0000 </r>
      </set>
     </set>
    </array>
   </total>
  </dos>
 </calculation>
 <structure name="finalpos" >
  <crystal>
   <varray name="basis" >
    <v>      11.17850000       0.00000000       0.00000000 </v>
    <v>       0.00000000       9.57460000       0.00000000 </v>
    <v>       0.00000000       0.00000000      11.18240000 </v>
   </varray>
   <i name="volume">   1196.84853820 </i>
   <varray name="rec_basis" >
    <v>       0.08945744       0.00000000       0.00000000 </v>
    <v>       0.00000000       0.10444301       0.00000000 </v>
    <v>       0.00000000       0.00000000       0.08942624 </v>
   </varray>
  </crystal>
  <varray name="positions" >
   <v>       0.12461000       0.99984000       0.18687000 </v>
   <v>       0.37461000       0.00017000       0.18687000 </v>
   <v>       0.62539000       0.99984000       0.43687000 </v>
   <v>       0.87539000       0.00017000       0.43687000 </v>
   <v>       0.62461000       0.99984000       0.18687000 </v>
   <v>       0.87461000       0.00017000       0.18687000 </v>
   <v>       0.12539000       0.99984000       0.93687000 </v>
   <v>       0.12461000       0.99984000       0.68687000 </v>
   <v>       0.37461000       0.00017000       0.68687000 </v>
   <v>       0.87539000       0.00017000       0.93687000 </v>
   <v>       0.62461000       0.99984000       0.68687000 </v>
   <v>       0.87461000       0.00017000       0.68687000 </v>
   <v>       0.37539000       0.00017000       0.43687000 </v>
   <v>       0.62539000       0.99984000       0.93687000 </v>
   <v>       0.00013000       0.29519000       0.06281000 </v>
   <v>       0.25013000       0.70481000       0.06281000 </v>
   <v>       0.24987000       0.29519000       0.31282000 </v>
   <v>       0.49987000       0.70481000       0.31282000 </v>
   <v>       0.50013000       0.29519000       0.06281000 </v>
   <v>       0.75013000       0.70481000       0.06281000 </v>
   <v>       0.74987000       0.29519000       0.31282000 </v>
   <v>       0.99987000       0.70481000       0.31282000 </v>
   <v>       0.00013000       0.29519000       0.56281000 </v>
   <v>       0.25013000       0.70481000       0.56281000 </v>
   <v>       0.24987000       0.29519000       0.81282000 </v>
   <v>       0.49987000       0.70481000       0.81282000 </v>
   <v>       0.50013000       0.29519000       0.56281000 </v>
   <v>       0.75013000       0.70481000       0.56281000 </v>
   <v>       0.74987000       0.29519000       0.81282000 </v>
   <v>       0.99987000       0.70481000       0.81282000 </v>
   <v>       0.25005000       0.32677000       0.06286000 </v>
   <v>       0.00005000       0.67323000       0.06286000 </v>
   <v>       0.49995000       0.32677000       0.31286000 </v>
   <v>       0.24995000       0.67323000       0.31286000 </v>
   <v>       0.75005000       0.32677000       0.06286000 </v>
   <v>       0.50005000       0.67323000       0.06286000 </v>
   <v>       0.99995000       0.32677000       0.31286000 </v>
   <v>       0.74995000       0.67323000       0.31286000 </v>
   <v>       0.25005000       0.32677000       0.56286000 </v>
   <v>       0.00005000       0.67323000       0.56286000 </v>
   <v>       0.49995000       0.32677000       0.81286000 </v>
   <v>       0.24995000       0.67323000       0.81286000 </v>
   <v>       0.75005000       0.32677000       0.56286000 </v>
   <v>       0.50005000       0.67323000       0.56286000 </v>
   <v>       0.99995000       0.32677000       0.81286000 </v>
   <v>       0.74995000       0.67323000       0.81286000 </v>
   <v>       0.49987000       0.07798000       0.06246000 </v>
   <v>       0.24987000       0.92202000       0.06246000 </v>
   <v>       0.25013000       0.07798000       0.31246000 </v>
   <v>       0.00013000       0.92202000       0.31246000 </v>
   <v>       0.99987000       0.07798000       0.06246000 </v>
   <v>       0.74987000       0.92202000       0.06246000 </v>
   <v>       0.75013000       0.07798000       0.31246000 </v>
   <v>       0.50013000       0.92202000       0.31246000 </v>
   <v>       0.49987000       0.07798000       0.56246000 </v>
   <v>       0.24987000       0.92202000       0.56246000 </v>
   <v>       0.25013000       0.07798000       0.81246000 </v>
   <v>       0.00013000       0.92202000       0.81246000 </v>
   <v>       0.99987000       0.07798000       0.56246000 </v>
   <v>       0.74987000       0.92202000       0.56246000 </v>
   <v>       0.75013000       0.07798000       0.81246000 </v>
   <v>       0.50013000       0.92202000       0.81246000 </v>
  </varray>
 </structure>
</modeling>
