<?xml version="1.0" encoding="ISO-8859-1"?>
<modeling>
 <generator>
  <i name="program" type="string">vasp </i>
  <i name="version" type="string">5.4.4.18Apr17-6-g9f103f2a35  </i>
  <i name="subversion" type="string">(build Jul 31 2017 11:33:29) complex            parallel </i>
  <i name="platform" type="string">LinuxIFC </i>
  <i name="date" type="string">2021 09 20 </i>
  <i name="time" type="string">19:41:24 </i>
 </generator>
 <incar>
  <i type="string" name="SYSTEM"> La2O2S</i>
  <i type="string" name="PREC">normal</i>
  <i type="int" name="NELMIN">     4</i>
  <i type="int" name="IBRION">     2</i>
  <i type="int" name="NFREE">    10</i>
  <i name="EDIFF">      0.00000100</i>
  <i name="EDIFFG">     -0.01000000</i>
  <i type="int" name="NSW">   200</i>
  <i type="int" name="ISIF">     3</i>
  <i name="ENCUT">    600.00000000</i>
  <i name="ENAUG">    900.00000000</i>
  <i type="int" name="ISMEAR">    -5</i>
  <i type="logical" name="LWAVE"> F  </i>
  <i type="logical" name="LCHARG"> F  </i>
  <v type="int" name="KPOINT_BSE">    -1     0     0     0</v>
 </incar>
 <structure name="primitive_cell" >
  <crystal>
   <varray name="basis" >
    <v>      11.17850000       0.00000000       0.00000000 </v>
    <v>       0.00000000       9.57460000       0.00000000 </v>
    <v>       0.00000000       0.00000000      11.18240000 </v>
   </varray>
   <i name="volume">   1196.84853820 </i>
   <varray name="rec_basis" >
    <v>       0.08945744       0.00000000       0.00000000 </v>
    <v>       0.00000000       0.10444301       0.00000000 </v>
    <v>       0.00000000       0.00000000       0.08942624 </v>
   </varray>
  </crystal>
  <varray name="positions" >
   <v>       0.37539000       0.00017000       0.43687000 </v>
   <v>      -0.49987000      -0.07798000       0.31246000 </v>
   <v>       0.25013000       0.07798000       0.31246000 </v>
   <v>       0.49987000       0.07798000      -0.43754000 </v>
   <v>       0.24987000      -0.07798000      -0.43754000 </v>
   <v>      -0.37461000      -0.00016000       0.43687000 </v>
   <v>       0.37461000       0.00017000       0.18687000 </v>
   <v>       0.37461000       0.00017000      -0.31313000 </v>
   <v>       0.49987000      -0.29519000       0.31282000 </v>
   <v>       0.24987000       0.29519000       0.31282000 </v>
   <v>      -0.49987000       0.29519000      -0.43719000 </v>
   <v>       0.25013000      -0.29519000      -0.43719000 </v>
   <v>       0.49995000       0.32677000       0.31286000 </v>
   <v>       0.24995000      -0.32677000       0.31286000 </v>
   <v>      -0.49995000      -0.32677000      -0.43714000 </v>
   <v>       0.25005000       0.32677000      -0.43714000 </v>
   <v>      -0.37539000      -0.00016000      -0.31313000 </v>
   <v>       0.12461000      -0.00016000      -0.31313000 </v>
   <v>       0.49987000       0.07798000       0.06246000 </v>
   <v>      -0.24987000       0.07798000       0.31246000 </v>
   <v>      -0.25013000      -0.07798000      -0.43754000 </v>
   <v>       0.24987000      -0.07798000       0.06246000 </v>
   <v>       0.00013000      -0.07798000       0.31246000 </v>
   <v>      -0.49987000      -0.07798000      -0.18754000 </v>
   <v>      -0.00013000       0.07798000      -0.43754000 </v>
   <v>       0.25013000       0.07798000      -0.18754000 </v>
   <v>      -0.49987000       0.29519000       0.06281000 </v>
   <v>      -0.25013000       0.29519000       0.31282000 </v>
   <v>       0.25013000      -0.29519000       0.06281000 </v>
   <v>      -0.24987000      -0.29519000      -0.43719000 </v>
   <v>      -0.00013000      -0.29519000       0.31282000 </v>
   <v>       0.00013000       0.29519000      -0.43719000 </v>
   <v>       0.49987000      -0.29519000      -0.18718000 </v>
   <v>       0.24987000       0.29519000      -0.18718000 </v>
   <v>      -0.49995000      -0.32677000       0.06286000 </v>
   <v>       0.25005000       0.32677000       0.06286000 </v>
   <v>      -0.25005000      -0.32677000       0.31286000 </v>
   <v>      -0.24995000       0.32677000      -0.43714000 </v>
   <v>      -0.00005000       0.32677000       0.31286000 </v>
   <v>       0.00005000      -0.32677000      -0.43714000 </v>
   <v>       0.49995000       0.32677000      -0.18714000 </v>
   <v>       0.24995000      -0.32677000      -0.18714000 </v>
   <v>      -0.12461000       0.00017000       0.43687000 </v>
   <v>       0.37539000       0.00017000      -0.06313000 </v>
   <v>      -0.25013000      -0.07798000       0.06246000 </v>
   <v>      -0.00013000       0.07798000       0.06246000 </v>
   <v>      -0.24987000       0.07798000      -0.18754000 </v>
   <v>       0.00013000      -0.07798000      -0.18754000 </v>
   <v>      -0.12539000       0.00017000      -0.31313000 </v>
   <v>      -0.12539000       0.00017000       0.18687000 </v>
   <v>      -0.24987000      -0.29519000       0.06281000 </v>
   <v>       0.00013000       0.29519000       0.06281000 </v>
   <v>      -0.25013000       0.29519000      -0.18718000 </v>
   <v>      -0.00013000      -0.29519000      -0.18718000 </v>
   <v>      -0.24995000       0.32677000       0.06286000 </v>
   <v>       0.00005000      -0.32677000       0.06286000 </v>
   <v>      -0.25005000      -0.32677000      -0.18714000 </v>
   <v>      -0.00005000       0.32677000      -0.18714000 </v>
   <v>      -0.12461000       0.00017000      -0.06313000 </v>
  </varray>
 </structure>
 <varray name="primitive_index" >
  <v type="int" >        1 </v>
  <v type="int" >       51 </v>
  <v type="int" >       46 </v>
  <v type="int" >       52 </v>
  <v type="int" >       53 </v>
  <v type="int" >        2 </v>
  <v type="int" >        7 </v>
  <v type="int" >       10 </v>
  <v type="int" >       15 </v>
  <v type="int" >       14 </v>
  <v type="int" >       24 </v>
  <v type="int" >       21 </v>
  <v type="int" >       30 </v>
  <v type="int" >       31 </v>
  <v type="int" >       41 </v>
  <v type="int" >       36 </v>
  <v type="int" >       11 </v>
  <v type="int" >        4 </v>
  <v type="int" >       44 </v>
  <v type="int" >       50 </v>
  <v type="int" >       57 </v>
  <v type="int" >       45 </v>
  <v type="int" >       47 </v>
  <v type="int" >       59 </v>
  <v type="int" >       56 </v>
  <v type="int" >       54 </v>
  <v type="int" >       16 </v>
  <v type="int" >       18 </v>
  <v type="int" >       13 </v>
  <v type="int" >       25 </v>
  <v type="int" >       19 </v>
  <v type="int" >       20 </v>
  <v type="int" >       23 </v>
  <v type="int" >       22 </v>
  <v type="int" >       33 </v>
  <v type="int" >       28 </v>
  <v type="int" >       35 </v>
  <v type="int" >       40 </v>
  <v type="int" >       34 </v>
  <v type="int" >       37 </v>
  <v type="int" >       38 </v>
  <v type="int" >       39 </v>
  <v type="int" >        3 </v>
  <v type="int" >        9 </v>
  <v type="int" >       49 </v>
  <v type="int" >       48 </v>
  <v type="int" >       58 </v>
  <v type="int" >       55 </v>
  <v type="int" >        6 </v>
  <v type="int" >        8 </v>
  <v type="int" >       17 </v>
  <v type="int" >       12 </v>
  <v type="int" >       26 </v>
  <v type="int" >       27 </v>
  <v type="int" >       32 </v>
  <v type="int" >       29 </v>
  <v type="int" >       43 </v>
  <v type="int" >       42 </v>
  <v type="int" >        5 </v>
 </varray>
 <kpoints>
  <generation param="Gamma">
   <v type="int" name="divisions">       2        2        2 </v>
   <v name="usershift">      0.00000000       0.00000000       0.00000000 </v>
   <v name="genvec1">      0.50000000       0.00000000       0.00000000 </v>
   <v name="genvec2">      0.00000000       0.50000000       0.00000000 </v>
   <v name="genvec3">      0.00000000       0.00000000       0.50000000 </v>
   <v name="shift">      0.00000000       0.00000000       0.00000000 </v>
  </generation>
  <varray name="kpointlist" >
   <v>       0.00000000       0.00000000       0.00000000 </v>
   <v>       0.50000000       0.00000000       0.00000000 </v>
   <v>       0.00000000       0.50000000       0.00000000 </v>
   <v>       0.50000000       0.50000000       0.00000000 </v>
   <v>       0.00000000       0.00000000       0.50000000 </v>
   <v>       0.50000000       0.00000000       0.50000000 </v>
   <v>       0.00000000       0.50000000       0.50000000 </v>
   <v>       0.50000000       0.50000000       0.50000000 </v>
  </varray>
  <varray name="weights" >
   <v>       0.12500000 </v>
   <v>       0.12500000 </v>
   <v>       0.12500000 </v>
   <v>       0.12500000 </v>
   <v>       0.12500000 </v>
   <v>       0.12500000 </v>
   <v>       0.12500000 </v>
   <v>       0.12500000 </v>
  </varray>
  <varray name="tetrahedronlist"  type="int" >
   <v type="int" >        2        1        2        4        5 </v>
   <v type="int" >        2        1        3        4        5 </v>
   <v type="int" >        2        3        4        5        7 </v>
   <v type="int" >        2        2        4        5        6 </v>
   <v type="int" >        2        4        5        6        8 </v>
   <v type="int" >        2        4        5        7        8 </v>
   <v type="int" >        2        1        2        3        6 </v>
   <v type="int" >        2        2        3        4        6 </v>
   <v type="int" >        2        3        4        6        8 </v>
   <v type="int" >        2        1        3        5        6 </v>
   <v type="int" >        2        3        5        6        7 </v>
   <v type="int" >        2        3        6        7        8 </v>
   <v type="int" >        2        2        3        4        7 </v>
   <v type="int" >        2        1        2        3        7 </v>
   <v type="int" >        2        1        2        5        7 </v>
   <v type="int" >        2        2        4        7        8 </v>
   <v type="int" >        2        2        6        7        8 </v>
   <v type="int" >        2        2        5        6        7 </v>
   <v type="int" >        2        1        3        4        8 </v>
   <v type="int" >        2        1        2        4        8 </v>
   <v type="int" >        2        1        2        6        8 </v>
   <v type="int" >        2        1        3        7        8 </v>
   <v type="int" >        2        1        5        7        8 </v>
   <v type="int" >        2        1        5        6        8 </v>
  </varray>
  <i name="volumeweight">      0.02083333 </i>
 </kpoints>
 <parameters>
  <separator name="general" >
   <i type="string" name="SYSTEM">La2O2S</i>
   <i type="logical" name="LCOMPAT"> F  </i>
  </separator>
  <separator name="electronic" >
   <i type="string" name="PREC">normal</i>
   <i name="ENMAX">    600.00000000</i>
   <i name="ENAUG">    900.00000000</i>
   <i name="EDIFF">      0.00000100</i>
   <i type="int" name="IALGO">    38</i>
   <i type="int" name="IWAVPR">    11</i>
   <i type="int" name="NBANDS">   280</i>
   <i name="NELECT">    460.00000000</i>
   <i type="int" name="TURBO">     0</i>
   <i type="int" name="IRESTART">     0</i>
   <i type="int" name="NREBOOT">     0</i>
   <i type="int" name="NMIN">     0</i>
   <i name="EREF">      0.00000000</i>
   <separator name="electronic smearing" >
    <i type="int" name="ISMEAR">    -5</i>
    <i name="SIGMA">      0.20000000</i>
    <i name="KSPACING">      0.50000000</i>
    <i type="logical" name="KGAMMA"> T  </i>
   </separator>
   <separator name="electronic projectors" >
    <i type="logical" name="LREAL"> F  </i>
    <v name="ROPT">      0.00000000      0.00000000      0.00000000      0.00000000      0.00000000</v>
    <i type="int" name="LMAXPAW">  -100</i>
    <i type="int" name="LMAXMIX">     2</i>
    <i type="logical" name="NLSPLINE"> F  </i>
   </separator>
   <separator name="electronic startup" >
    <i type="int" name="ISTART">     0</i>
    <i type="int" name="ICHARG">     2</i>
    <i type="int" name="INIWAV">     1</i>
   </separator>
   <separator name="electronic spin" >
    <i type="int" name="ISPIN">     1</i>
    <i type="logical" name="LNONCOLLINEAR"> F  </i>
    <v name="MAGMOM">      1.00000000      1.00000000      1.00000000      1.00000000      1.00000000      1.00000000      1.00000000      1.00000000      1.00000000      1.00000000      1.00000000      1.00000000      1.00000000      1.00000000      1.00000000      1.00000000      1.00000000      1.00000000      1.00000000      1.00000000
      1.00000000      1.00000000      1.00000000      1.00000000      1.00000000      1.00000000      1.00000000      1.00000000      1.00000000      1.00000000      1.00000000      1.00000000      1.00000000      1.00000000      1.00000000      1.00000000      1.00000000      1.00000000      1.00000000      1.00000000
      1.00000000      1.00000000      1.00000000      1.00000000      1.00000000      1.00000000      1.00000000      1.00000000      1.00000000      1.00000000      1.00000000      1.00000000      1.00000000      1.00000000      1.00000000      1.00000000      1.00000000      1.00000000      1.00000000</v>
    <i name="NUPDOWN">     -1.00000000</i>
    <i type="logical" name="LSORBIT"> F  </i>
    <v name="SAXIS">      0.00000000      0.00000000      1.00000000</v>
    <i type="logical" name="LSPIRAL"> F  </i>
    <v name="QSPIRAL">      0.00000000      0.00000000      0.00000000</v>
    <i type="logical" name="LZEROZ"> F  </i>
   </separator>
   <separator name="electronic exchange-correlation" >
    <i type="logical" name="LASPH"> F  </i>
    <i type="logical" name="LMETAGGA"> F  </i>
   </separator>
   <separator name="electronic convergence" >
    <i type="int" name="NELM">    60</i>
    <i type="int" name="NELMDL">    -5</i>
    <i type="int" name="NELMIN">     4</i>
    <i name="ENINI">    600.00000000</i>
    <separator name="electronic convergence detail" >
     <i type="logical" name="LDIAG"> T  </i>
     <i type="logical" name="LSUBROT"> F  </i>
     <i name="WEIMIN">      0.00100000</i>
     <i name="EBREAK">      0.00000000</i>
     <i name="DEPER">      0.30000000</i>
     <i type="int" name="NRMM">     4</i>
     <i name="TIME">      0.40000000</i>
    </separator>
   </separator>
   <separator name="electronic mixer" >
    <i name="AMIX">      0.40000000</i>
    <i name="BMIX">      1.00000000</i>
    <i name="AMIN">      0.10000000</i>
    <i name="AMIX_MAG">      1.60000000</i>
    <i name="BMIX_MAG">      1.00000000</i>
    <separator name="electronic mixer details" >
     <i type="int" name="IMIX">     4</i>
     <i type="logical" name="MIXFIRST"> F  </i>
     <i type="int" name="MAXMIX">   -45</i>
     <i name="WC">    100.00000000</i>
     <i type="int" name="INIMIX">     1</i>
     <i type="int" name="MIXPRE">     1</i>
     <i type="int" name="MREMOVE">     5</i>
    </separator>
   </separator>
   <separator name="electronic dipolcorrection" >
    <i type="logical" name="LDIPOL"> F  </i>
    <i type="logical" name="LMONO"> F  </i>
    <i type="int" name="IDIPOL">     0</i>
    <i name="EPSILON">      1.00000000</i>
    <v name="DIPOL">   -100.00000000   -100.00000000   -100.00000000</v>
    <i name="EFIELD">      0.00000000</i>
   </separator>
  </separator>
  <separator name="grids" >
   <i type="int" name="NGX">    70</i>
   <i type="int" name="NGY">    60</i>
   <i type="int" name="NGZ">    70</i>
   <i type="int" name="NGXF">   140</i>
   <i type="int" name="NGYF">   120</i>
   <i type="int" name="NGZF">   140</i>
   <i type="logical" name="ADDGRID"> F  </i>
  </separator>
  <separator name="ionic" >
   <i type="int" name="NSW">   200</i>
   <i type="int" name="IBRION">     2</i>
   <i type="int" name="MDALGO">     0</i>
   <i type="int" name="ISIF">     3</i>
   <i name="PSTRESS">      0.00000000</i>
   <i name="EDIFFG">     -0.01000000</i>
   <i type="int" name="NFREE">    10</i>
   <i name="POTIM">      0.50000000</i>
   <i name="SMASS">     -3.00000000</i>
   <i name="SCALEE">      1.00000000</i>
  </separator>
  <separator name="ionic md" >
   <i name="TEBEG">      0.00010000</i>
   <i name="TEEND">      0.00010000</i>
   <i type="int" name="NBLOCK">     1</i>
   <i type="int" name="KBLOCK">   200</i>
   <i type="int" name="NPACO">   256</i>
   <i name="APACO">     16.00000000</i>
  </separator>
  <separator name="symmetry" >
   <i type="int" name="ISYM">     2</i>
   <i name="SYMPREC">      0.00001000</i>
  </separator>
  <separator name="dos" >
   <i type="int" name="LORBIT">     0</i>
   <v name="RWIGS">     -1.00000000     -1.00000000     -1.00000000     -1.00000000     -1.00000000</v>
   <i type="int" name="NEDOS">   301</i>
   <i name="EMIN">     10.00000000</i>
   <i name="EMAX">    -10.00000000</i>
   <i name="EFERMI">      0.00000000</i>
  </separator>
  <separator name="writing" >
   <i type="int" name="NWRITE">     2</i>
   <i type="logical" name="LWAVE"> F  </i>
   <i type="logical" name="LDOWNSAMPLE"> F  </i>
   <i type="logical" name="LCHARG"> F  </i>
   <i type="logical" name="LPARD"> F  </i>
   <i type="logical" name="LVTOT"> F  </i>
   <i type="logical" name="LVHAR"> F  </i>
   <i type="logical" name="LELF"> F  </i>
   <i type="logical" name="LOPTICS"> F  </i>
   <v name="STM">      0.00000000      0.00000000      0.00000000      0.00000000      0.00000000      0.00000000      0.00000000</v>
  </separator>
  <separator name="performance" >
   <i type="int" name="NPAR">    28</i>
   <i type="int" name="NSIM">     4</i>
   <i type="int" name="NBLK">    -1</i>
   <i type="logical" name="LPLANE"> T  </i>
   <i type="logical" name="LSCALAPACK"> T  </i>
   <i type="logical" name="LSCAAWARE"> F  </i>
   <i type="logical" name="LSCALU"> F  </i>
   <i type="logical" name="LASYNC"> F  </i>
   <i type="logical" name="LORBITALREAL"> F  </i>
  </separator>
  <separator name="miscellaneous" >
   <i type="int" name="IDIOT">     3</i>
   <i type="int" name="ISPECIAL">     0</i>
   <i type="logical" name="LMUSIC"> F  </i>
   <v name="POMASS">      7.01000000     24.30500000    208.98000000     32.06600000     16.00000000</v>
   <v name="DARWINR">      0.00000000      0.00000000      0.00000000      0.00000000      0.00000000</v>
   <v name="DARWINV">      1.00000000      1.00000000      1.00000000      1.00000000      1.00000000</v>
   <i type="logical" name="LCORR"> T  </i>
  </separator>
  <i type="logical" name="GGA_COMPAT"> T  </i>
  <i type="logical" name="LBERRY"> F  </i>
  <i type="int" name="ICORELEVEL">     0</i>
  <i type="logical" name="LDAU"> F  </i>
  <i type="int" name="I_CONSTRAINED_M">     0</i>
  <separator name="electronic exchange-correlation" >
   <i type="string" name="GGA">--</i>
   <i type="int" name="VOSKOWN">     0</i>
   <i type="logical" name="LHFCALC"> F  </i>
   <i type="string" name="PRECFOCK"></i>
   <i type="logical" name="LSYMGRAD"> F  </i>
   <i type="logical" name="LHFONE"> F  </i>
   <i type="logical" name="LRHFCALC"> F  </i>
   <i type="logical" name="LTHOMAS"> F  </i>
   <i type="logical" name="LMODELHF"> F  </i>
   <i name="ENCUT4O">     -1.00000000</i>
   <i type="int" name="EXXOEP">     0</i>
   <i type="int" name="FOURORBIT">     0</i>
   <i name="AEXX">      0.00000000</i>
   <i name="HFALPHA">      0.00000000</i>
   <i name="MCALPHA">      0.00000000</i>
   <i name="ALDAX">      1.00000000</i>
   <i name="AGGAX">      1.00000000</i>
   <i name="ALDAC">      1.00000000</i>
   <i name="AGGAC">      1.00000000</i>
   <i type="int" name="NKREDX">     1</i>
   <i type="int" name="NKREDY">     1</i>
   <i type="int" name="NKREDZ">     1</i>
   <i type="logical" name="SHIFTRED"> F  </i>
   <i type="logical" name="ODDONLY"> F  </i>
   <i type="logical" name="EVENONLY"> F  </i>
   <i type="int" name="LMAXFOCK">     0</i>
   <i type="int" name="NMAXFOCKAE">     0</i>
   <i type="logical" name="LFOCKAEDFT"> F  </i>
   <i name="HFSCREEN">      0.00000000</i>
   <i name="HFSCREENC">      0.00000000</i>
   <i type="int" name="NBANDSGWLOW">     0</i>
  </separator>
  <separator name="vdW DFT" >
   <i type="logical" name="LUSE_VDW"> F  </i>
   <i name="Zab_VDW">     -0.84910000</i>
   <i name="PARAM1">      0.12340000</i>
   <i name="PARAM2">      1.00000000</i>
   <i name="PARAM3">      0.00000000</i>
  </separator>
  <separator name="model GW" >
   <i type="int" name="MODEL_GW">     0</i>
   <i name="MODEL_EPS0">     12.17134107</i>
   <i name="MODEL_ALPHA">      1.00000000</i>
  </separator>
  <separator name="linear response parameters" >
   <i type="logical" name="LEPSILON"> F  </i>
   <i type="logical" name="LRPA"> F  </i>
   <i type="logical" name="LNABLA"> F  </i>
   <i type="logical" name="LVEL"> F  </i>
   <i type="int" name="KINTER">     0</i>
   <i name="CSHIFT">      0.10000000</i>
   <i name="OMEGAMAX">     -1.00000000</i>
   <i name="DEG_THRESHOLD">      0.00200000</i>
   <i name="RTIME">     -0.10000000</i>
   <i name="WPLASMAI">      0.00000000</i>
   <v name="DFIELD">      0.00000000      0.00000000      0.00000000</v>
   <v name="WPLASMA">      0.00000000      0.00000000      0.00000000      0.00000000      0.00000000      0.00000000      0.00000000      0.00000000      0.00000000</v>
  </separator>
  <separator name="orbital magnetization" >
   <i type="logical" name="NUCIND"> F  </i>
   <v name="MAGPOS">      0.00000000      0.00000000      0.00000000</v>
   <i type="logical" name="LNICSALL"> T  </i>
   <i type="logical" name="ORBITALMAG"> F  </i>
   <i type="logical" name="LMAGBLOCH"> F  </i>
   <i type="logical" name="LCHIMAG"> F  </i>
   <i type="logical" name="LGAUGE"> T  </i>
   <i type="int" name="MAGATOM">     0</i>
   <v name="MAGDIPOL">      0.00000000      0.00000000      0.00000000</v>
   <v name="AVECCONST">      0.00000000      0.00000000      0.00000000</v>
  </separator>
  <separator name="response functions" >
   <i type="logical" name="LADDER"> F  </i>
   <i type="logical" name="LRPAFORCE"> F  </i>
   <i type="logical" name="LFXC"> F  </i>
   <i type="logical" name="LHARTREE"> T  </i>
   <i type="int" name="IBSE">     0</i>
   <v type="int" name="KPOINT">    -1     0     0     0</v>
   <i type="logical" name="LTCTE"> F  </i>
   <i type="logical" name="LTETE"> F  </i>
   <i type="logical" name="LTRIPLET"> F  </i>
   <i type="logical" name="LFXCEPS"> F  </i>
   <i type="logical" name="LFXHEG"> F  </i>
   <i type="int" name="NATURALO">     2</i>
   <i type="logical" name="L2ORDER"> F  </i>
   <i type="logical" name="LMP2LT"> F  </i>
   <i type="logical" name="LUSEW"> F  </i>
   <i name="ENCUTGW">     -2.00000000</i>
   <i name="ENCUTGWSOFT">     -2.00000000</i>
   <i name="ENCUTLF">     -1.00000000</i>
   <i type="int" name="LMAXMP2">    -1</i>
   <i name="SCISSOR">      0.00000000</i>
   <i type="int" name="NOMEGA">     0</i>
   <i type="int" name="NOMEGAR">     0</i>
   <i type="int" name="NBANDSGW">    -1</i>
   <i type="int" name="NBANDSO">    -1</i>
   <i type="int" name="NBANDSV">    -1</i>
   <i type="int" name="NELM">     1</i>
   <i type="int" name="NELMHF">     1</i>
   <i type="int" name="DIM">     3</i>
   <i type="int" name="ANTIRES">     0</i>
   <i name="OMEGAMAX">    -30.00000000</i>
   <i name="OMEGAMIN">    -30.00000000</i>
   <i name="OMEGATL">   -200.00000000</i>
   <i type="int" name="OMEGAGRID">   140</i>
   <i name="CSHIFT">     -0.10000000</i>
   <i type="logical" name="SELFENERGY"> F  </i>
   <i type="logical" name="LSPECTRAL"> F  </i>
   <i type="logical" name="LSPECTRALGW"> F  </i>
   <i type="logical" name="LSINGLES"> F  </i>
   <i type="logical" name="LFERMIGW"> F  </i>
   <i type="logical" name="ODDONLYGW"> F  </i>
   <i type="logical" name="EVENONLYGW"> F  </i>
   <i type="int" name="NKREDLFX">     1</i>
   <i type="int" name="NKREDLFY">     1</i>
   <i type="int" name="NKREDLFZ">     1</i>
   <i type="int" name="MAXMEM">  2800</i>
   <i type="int" name="TELESCOPE">     0</i>
   <i type="int" name="TAUPAR">     1</i>
   <i type="int" name="OMEGAPAR">    -1</i>
   <i name="LAMBDA">      1.00000000</i>
  </separator>
  <separator name="External order field" >
   <i name="OFIELD_KAPPA">      0.00000000</i>
   <v name="OFIELD_K">      0.00000000      0.00000000      0.00000000</v>
   <i name="OFIELD_Q6_NEAR">      0.00000000</i>
   <i name="OFIELD_Q6_FAR">      0.00000000</i>
   <i name="OFIELD_A">      0.00000000</i>
  </separator>
 </parameters>
 <atominfo>
  <atoms>      59 </atoms>
  <types>       5 </types>
  <array name="atoms" >
   <dimension dim="1">ion</dimension>
   <field type="string">element</field>
   <field type="int">atomtype</field>
   <set>
    <rc><c>Li</c><c>   1</c></rc>
    <rc><c>Li</c><c>   1</c></rc>
    <rc><c>Li</c><c>   1</c></rc>
    <rc><c>Li</c><c>   1</c></rc>
    <rc><c>Li</c><c>   1</c></rc>
    <rc><c>Li</c><c>   1</c></rc>
    <rc><c>Mg</c><c>   2</c></rc>
    <rc><c>Mg</c><c>   2</c></rc>
    <rc><c>Mg</c><c>   2</c></rc>
    <rc><c>Mg</c><c>   2</c></rc>
    <rc><c>Mg</c><c>   2</c></rc>
    <rc><c>Bi</c><c>   3</c></rc>
    <rc><c>Bi</c><c>   3</c></rc>
    <rc><c>Bi</c><c>   3</c></rc>
    <rc><c>Bi</c><c>   3</c></rc>
    <rc><c>Bi</c><c>   3</c></rc>
    <rc><c>Bi</c><c>   3</c></rc>
    <rc><c>Bi</c><c>   3</c></rc>
    <rc><c>Bi</c><c>   3</c></rc>
    <rc><c>Bi</c><c>   3</c></rc>
    <rc><c>Bi</c><c>   3</c></rc>
    <rc><c>Bi</c><c>   3</c></rc>
    <rc><c>Bi</c><c>   3</c></rc>
    <rc><c>Bi</c><c>   3</c></rc>
    <rc><c>Bi</c><c>   3</c></rc>
    <rc><c>Bi</c><c>   3</c></rc>
    <rc><c>Bi</c><c>   3</c></rc>
    <rc><c>S </c><c>   4</c></rc>
    <rc><c>S </c><c>   4</c></rc>
    <rc><c>S </c><c>   4</c></rc>
    <rc><c>S </c><c>   4</c></rc>
    <rc><c>S </c><c>   4</c></rc>
    <rc><c>S </c><c>   4</c></rc>
    <rc><c>S </c><c>   4</c></rc>
    <rc><c>S </c><c>   4</c></rc>
    <rc><c>S </c><c>   4</c></rc>
    <rc><c>S </c><c>   4</c></rc>
    <rc><c>S </c><c>   4</c></rc>
    <rc><c>S </c><c>   4</c></rc>
    <rc><c>S </c><c>   4</c></rc>
    <rc><c>S </c><c>   4</c></rc>
    <rc><c>S </c><c>   4</c></rc>
    <rc><c>S </c><c>   4</c></rc>
    <rc><c>O </c><c>   5</c></rc>
    <rc><c>O </c><c>   5</c></rc>
    <rc><c>O </c><c>   5</c></rc>
    <rc><c>O </c><c>   5</c></rc>
    <rc><c>O </c><c>   5</c></rc>
    <rc><c>O </c><c>   5</c></rc>
    <rc><c>O </c><c>   5</c></rc>
    <rc><c>O </c><c>   5</c></rc>
    <rc><c>O </c><c>   5</c></rc>
    <rc><c>O </c><c>   5</c></rc>
    <rc><c>O </c><c>   5</c></rc>
    <rc><c>O </c><c>   5</c></rc>
    <rc><c>O </c><c>   5</c></rc>
    <rc><c>O </c><c>   5</c></rc>
    <rc><c>O </c><c>   5</c></rc>
    <rc><c>O </c><c>   5</c></rc>
   </set>
  </array>
  <array name="atomtypes" >
   <dimension dim="1">type</dimension>
   <field type="int">atomspertype</field>
   <field type="string">element</field>
   <field>mass</field>
   <field>valence</field>
   <field type="string">pseudopotential</field>
   <set>
    <rc><c>   6</c><c>Li</c><c>      7.01000000</c><c>      3.00000000</c><c>  PAW_PBE Li_sv 10Sep2004               </c></rc>
    <rc><c>   5</c><c>Mg</c><c>     24.30500000</c><c>      2.00000000</c><c>  PAW_PBE Mg 13Apr2007                  </c></rc>
    <rc><c>  16</c><c>Bi</c><c>    208.98000000</c><c>     15.00000000</c><c>  PAW_PBE Bi_d 06Sep2000                </c></rc>
    <rc><c>  16</c><c>S </c><c>     32.06600000</c><c>      6.00000000</c><c>  PAW_PBE S 06Sep2000                   </c></rc>
    <rc><c>  16</c><c>O </c><c>     16.00000000</c><c>      6.00000000</c><c>  PAW_PBE O 08Apr2002                   </c></rc>
   </set>
  </array>
 </atominfo>
 <structure name="initialpos" >
  <crystal>
   <varray name="basis" >
    <v>      11.17850000       0.00000000       0.00000000 </v>
    <v>       0.00000000       9.57460000       0.00000000 </v>
    <v>       0.00000000       0.00000000      11.18240000 </v>
   </varray>
   <i name="volume">   1196.84853820 </i>
   <varray name="rec_basis" >
    <v>       0.08945744       0.00000000       0.00000000 </v>
    <v>       0.00000000       0.10444301       0.00000000 </v>
    <v>       0.00000000       0.00000000       0.08942624 </v>
   </varray>
  </crystal>
  <varray name="positions" >
   <v>       0.37539000       0.00017000       0.43687000 </v>
   <v>       0.62539000       0.99984000       0.43687000 </v>
   <v>       0.87539000       0.00017000       0.43687000 </v>
   <v>       0.12461000       0.99984000       0.68687000 </v>
   <v>       0.87539000       0.00017000       0.93687000 </v>
   <v>       0.87461000       0.00017000       0.68687000 </v>
   <v>       0.37461000       0.00017000       0.18687000 </v>
   <v>       0.87461000       0.00017000       0.18687000 </v>
   <v>       0.37539000       0.00017000       0.93687000 </v>
   <v>       0.37461000       0.00017000       0.68687000 </v>
   <v>       0.62461000       0.99984000       0.68687000 </v>
   <v>       0.00013000       0.29519000       0.06281000 </v>
   <v>       0.25013000       0.70481000       0.06281000 </v>
   <v>       0.24987000       0.29519000       0.31282000 </v>
   <v>       0.49987000       0.70481000       0.31282000 </v>
   <v>       0.50013000       0.29519000       0.06281000 </v>
   <v>       0.75013000       0.70481000       0.06281000 </v>
   <v>       0.74987000       0.29519000       0.31282000 </v>
   <v>       0.99987000       0.70481000       0.31282000 </v>
   <v>       0.00013000       0.29519000       0.56281000 </v>
   <v>       0.25013000       0.70481000       0.56281000 </v>
   <v>       0.24987000       0.29519000       0.81282000 </v>
   <v>       0.49987000       0.70481000       0.81282000 </v>
   <v>       0.50013000       0.29519000       0.56281000 </v>
   <v>       0.75013000       0.70481000       0.56281000 </v>
   <v>       0.74987000       0.29519000       0.81282000 </v>
   <v>       0.99987000       0.70481000       0.81282000 </v>
   <v>       0.25005000       0.32677000       0.06286000 </v>
   <v>       0.00005000       0.67323000       0.06286000 </v>
   <v>       0.49995000       0.32677000       0.31286000 </v>
   <v>       0.24995000       0.67323000       0.31286000 </v>
   <v>       0.75005000       0.32677000       0.06286000 </v>
   <v>       0.50005000       0.67323000       0.06286000 </v>
   <v>       0.99995000       0.32677000       0.31286000 </v>
   <v>       0.74995000       0.67323000       0.31286000 </v>
   <v>       0.25005000       0.32677000       0.56286000 </v>
   <v>       0.00005000       0.67323000       0.56286000 </v>
   <v>       0.49995000       0.32677000       0.81286000 </v>
   <v>       0.24995000       0.67323000       0.81286000 </v>
   <v>       0.75005000       0.32677000       0.56286000 </v>
   <v>       0.50005000       0.67323000       0.56286000 </v>
   <v>       0.99995000       0.32677000       0.81286000 </v>
   <v>       0.74995000       0.67323000       0.81286000 </v>
   <v>       0.49987000       0.07798000       0.06246000 </v>
   <v>       0.24987000       0.92202000       0.06246000 </v>
   <v>       0.25013000       0.07798000       0.31246000 </v>
   <v>       0.00013000       0.92202000       0.31246000 </v>
   <v>       0.99987000       0.07798000       0.06246000 </v>
   <v>       0.74987000       0.92202000       0.06246000 </v>
   <v>       0.75013000       0.07798000       0.31246000 </v>
   <v>       0.50013000       0.92202000       0.31246000 </v>
   <v>       0.49987000       0.07798000       0.56246000 </v>
   <v>       0.24987000       0.92202000       0.56246000 </v>
   <v>       0.25013000       0.07798000       0.81246000 </v>
   <v>       0.00013000       0.92202000       0.81246000 </v>
   <v>       0.99987000       0.07798000       0.56246000 </v>
   <v>       0.74987000       0.92202000       0.56246000 </v>
   <v>       0.75013000       0.07798000       0.81246000 </v>
   <v>       0.50013000       0.92202000       0.81246000 </v>
  </varray>
 </structure>
 <calculation>
  <scstep>
   <time name="dav">   60.39   60.70</time>
   <time name="total">   60.48   60.79</time>
   <energy>
    <i name="alphaZ">   1060.66890660 </i>
    <i name="ewald"> -30401.31761191 </i>
    <i name="hartreedc"> -12715.03546490 </i>
    <i name="XCdc">   1247.32352327 </i>
    <i name="pawpsdc">  36635.26894311 </i>
    <i name="pawaedc"> -35972.74895369 </i>
    <i name="eentropy">      0.00000000 </i>
    <i name="bandstr">   1869.67497830 </i>
    <i name="atom">  44026.03258983 </i>
    <i name="e_fr_energy">   5749.86691062 </i>
    <i name="e_wo_entrp">   5749.86691062 </i>
    <i name="e_0_energy">   5749.86691062 </i>
   </energy>
  </scstep>
  <scstep>
   <time name="dav">   60.91   61.15</time>
   <time name="total">   60.92   61.16</time>
   <energy>
    <i name="e_fr_energy">    762.92431897 </i>
    <i name="e_wo_entrp">    762.92431897 </i>
    <i name="e_0_energy">    762.92431897 </i>
   </energy>
  </scstep>
  <scstep>
   <time name="dav">   69.86   70.09</time>
   <time name="total">   69.86   70.10</time>
   <energy>
    <i name="e_fr_energy">   -241.37711086 </i>
    <i name="e_wo_entrp">   -241.37711086 </i>
    <i name="e_0_energy">   -241.37711086 </i>
   </energy>
  </scstep>
  <scstep>
   <time name="dav">   72.36   73.65</time>
   <time name="total">   72.36   73.66</time>
   <energy>
    <i name="e_fr_energy">   -335.04088962 </i>
    <i name="e_wo_entrp">   -335.04088962 </i>
    <i name="e_0_energy">   -335.04088962 </i>
   </energy>
  </scstep>
  <scstep>
   <time name="dav">   93.17   94.53</time>
   <time name="total">   93.91   95.26</time>
   <energy>
    <i name="e_fr_energy">   -342.11456430 </i>
    <i name="e_wo_entrp">   -342.11456430 </i>
    <i name="e_0_energy">   -342.11456430 </i>
   </energy>
  </scstep>
  <scstep>
   <time name="dav">   85.22   86.80</time>
   <time name="total">   86.01   87.59</time>
   <energy>
    <i name="e_fr_energy">   -286.63912690 </i>
    <i name="e_wo_entrp">   -286.63912690 </i>
    <i name="e_0_energy">   -286.63912690 </i>
   </energy>
  </scstep>
  <scstep>
   <time name="dav">   64.64   65.77</time>
   <time name="total">   65.42   66.55</time>
   <energy>
    <i name="e_fr_energy">   -288.77420291 </i>
    <i name="e_wo_entrp">   -288.77420291 </i>
    <i name="e_0_energy">   -288.77420291 </i>
   </energy>
  </scstep>
  <scstep>
   <time name="dav">   79.01   79.44</time>
   <time name="total">   79.79   80.22</time>
   <energy>
    <i name="e_fr_energy">   -287.71572944 </i>
    <i name="e_wo_entrp">   -287.71572944 </i>
    <i name="e_0_energy">   -287.71572944 </i>
   </energy>
  </scstep>
  <scstep>
   <time name="dav">   76.95   77.30</time>
   <time name="total">   77.73   78.08</time>
   <energy>
    <i name="e_fr_energy">   -287.17757269 </i>
    <i name="e_wo_entrp">   -287.17757269 </i>
    <i name="e_0_energy">   -287.17757269 </i>
   </energy>
  </scstep>
  <scstep>
   <time name="dav">   72.51   72.85</time>
   <time name="total">   73.29   73.63</time>
   <energy>
    <i name="e_fr_energy">   -287.19813446 </i>
    <i name="e_wo_entrp">   -287.19813446 </i>
    <i name="e_0_energy">   -287.19813446 </i>
   </energy>
  </scstep>
  <scstep>
   <time name="dav">   83.15   83.58</time>
   <time name="total">   83.93   84.36</time>
   <energy>
    <i name="e_fr_energy">   -287.20280292 </i>
    <i name="e_wo_entrp">   -287.20280292 </i>
    <i name="e_0_energy">   -287.20280292 </i>
   </energy>
  </scstep>
  <scstep>
   <time name="dav">   75.32   76.17</time>
   <time name="total">   76.10   76.95</time>
   <energy>
    <i name="e_fr_energy">   -287.20607477 </i>
    <i name="e_wo_entrp">   -287.20607477 </i>
    <i name="e_0_energy">   -287.20607477 </i>
   </energy>
  </scstep>
  <scstep>
   <time name="dav">   67.54   68.98</time>
   <time name="total">   68.32   69.77</time>
   <energy>
    <i name="e_fr_energy">   -287.20709542 </i>
    <i name="e_wo_entrp">   -287.20709542 </i>
    <i name="e_0_energy">   -287.20709542 </i>
   </energy>
  </scstep>
  <scstep>
   <time name="dav">   72.87   74.19</time>
   <time name="total">   73.64   74.98</time>
   <energy>
    <i name="e_fr_energy">   -287.20737401 </i>
    <i name="e_wo_entrp">   -287.20737401 </i>
    <i name="e_0_energy">   -287.20737401 </i>
   </energy>
  </scstep>
  <scstep>
   <time name="dav">   79.19   79.57</time>
   <time name="total">   79.97   80.36</time>
   <energy>
    <i name="e_fr_energy">   -287.20741058 </i>
    <i name="e_wo_entrp">   -287.20741058 </i>
    <i name="e_0_energy">   -287.20741058 </i>
   </energy>
  </scstep>
  <scstep>
   <time name="dav">   67.87   68.24</time>
   <time name="total">   68.66   69.03</time>
   <energy>
    <i name="e_fr_energy">   -287.20743135 </i>
    <i name="e_wo_entrp">   -287.20743135 </i>
    <i name="e_0_energy">   -287.20743135 </i>
   </energy>
  </scstep>
  <scstep>
   <time name="dav">   72.48   72.83</time>
   <time name="total">   73.27   73.62</time>
   <energy>
    <i name="e_fr_energy">   -287.20743311 </i>
    <i name="e_wo_entrp">   -287.20743311 </i>
    <i name="e_0_energy">   -287.20743311 </i>
   </energy>
  </scstep>
  <scstep>
   <time name="dav">   58.03   58.28</time>
   <time name="total">   58.10   58.35</time>
   <energy>
    <i name="alphaZ">   1060.66890660 </i>
    <i name="ewald"> -30401.31761191 </i>
    <i name="hartreedc"> -12945.02672272 </i>
    <i name="XCdc">   1271.64105416 </i>
    <i name="pawpsdc">  43631.38154383 </i>
    <i name="pawaedc"> -42941.95930506 </i>
    <i name="eentropy">      0.00000000 </i>
    <i name="bandstr">  -3988.62788846 </i>
    <i name="atom">  44026.03258983 </i>
    <i name="e_fr_energy">   -287.20743374 </i>
    <i name="e_wo_entrp">   -287.20743374 </i>
    <i name="e_0_energy">   -287.20743374 </i>
   </energy>
  </scstep>
  <structure>
   <crystal>
    <varray name="basis" >
     <v>      11.17850000       0.00000000       0.00000000 </v>
     <v>       0.00000000       9.57460000       0.00000000 </v>
     <v>       0.00000000       0.00000000      11.18240000 </v>
    </varray>
    <i name="volume">   1196.84853820 </i>
    <varray name="rec_basis" >
     <v>       0.08945744       0.00000000       0.00000000 </v>
     <v>       0.00000000       0.10444301       0.00000000 </v>
     <v>       0.00000000       0.00000000       0.08942624 </v>
    </varray>
   </crystal>
   <varray name="positions" >
    <v>       0.37539000       0.00017000       0.43687000 </v>
    <v>       0.62539000       0.99984000       0.43687000 </v>
    <v>       0.87539000       0.00017000       0.43687000 </v>
    <v>       0.12461000       0.99984000       0.68687000 </v>
    <v>       0.87539000       0.00017000       0.93687000 </v>
    <v>       0.87461000       0.00017000       0.68687000 </v>
    <v>       0.37461000       0.00017000       0.18687000 </v>
    <v>       0.87461000       0.00017000       0.18687000 </v>
    <v>       0.37539000       0.00017000       0.93687000 </v>
    <v>       0.37461000       0.00017000       0.68687000 </v>
    <v>       0.62461000       0.99984000       0.68687000 </v>
    <v>       0.00013000       0.29519000       0.06281000 </v>
    <v>       0.25013000       0.70481000       0.06281000 </v>
    <v>       0.24987000       0.29519000       0.31282000 </v>
    <v>       0.49987000       0.70481000       0.31282000 </v>
    <v>       0.50013000       0.29519000       0.06281000 </v>
    <v>       0.75013000       0.70481000       0.06281000 </v>
    <v>       0.74987000       0.29519000       0.31282000 </v>
    <v>       0.99987000       0.70481000       0.31282000 </v>
    <v>       0.00013000       0.29519000       0.56281000 </v>
    <v>       0.25013000       0.70481000       0.56281000 </v>
    <v>       0.24987000       0.29519000       0.81282000 </v>
    <v>       0.49987000       0.70481000       0.81282000 </v>
    <v>       0.50013000       0.29519000       0.56281000 </v>
    <v>       0.75013000       0.70481000       0.56281000 </v>
    <v>       0.74987000       0.29519000       0.81282000 </v>
    <v>       0.99987000       0.70481000       0.81282000 </v>
    <v>       0.25005000       0.32677000       0.06286000 </v>
    <v>       0.00005000       0.67323000       0.06286000 </v>
    <v>       0.49995000       0.32677000       0.31286000 </v>
    <v>       0.24995000       0.67323000       0.31286000 </v>
    <v>       0.75005000       0.32677000       0.06286000 </v>
    <v>       0.50005000       0.67323000       0.06286000 </v>
    <v>       0.99995000       0.32677000       0.31286000 </v>
    <v>       0.74995000       0.67323000       0.31286000 </v>
    <v>       0.25005000       0.32677000       0.56286000 </v>
    <v>       0.00005000       0.67323000       0.56286000 </v>
    <v>       0.49995000       0.32677000       0.81286000 </v>
    <v>       0.24995000       0.67323000       0.81286000 </v>
    <v>       0.75005000       0.32677000       0.56286000 </v>
    <v>       0.50005000       0.67323000       0.56286000 </v>
    <v>       0.99995000       0.32677000       0.81286000 </v>
    <v>       0.74995000       0.67323000       0.81286000 </v>
    <v>       0.49987000       0.07798000       0.06246000 </v>
    <v>       0.24987000       0.92202000       0.06246000 </v>
    <v>       0.25013000       0.07798000       0.31246000 </v>
    <v>       0.00013000       0.92202000       0.31246000 </v>
    <v>       0.99987000       0.07798000       0.06246000 </v>
    <v>       0.74987000       0.92202000       0.06246000 </v>
    <v>       0.75013000       0.07798000       0.31246000 </v>
    <v>       0.50013000       0.92202000       0.31246000 </v>
    <v>       0.49987000       0.07798000       0.56246000 </v>
    <v>       0.24987000       0.92202000       0.56246000 </v>
    <v>       0.25013000       0.07798000       0.81246000 </v>
    <v>       0.00013000       0.92202000       0.81246000 </v>
    <v>       0.99987000       0.07798000       0.56246000 </v>
    <v>       0.74987000       0.92202000       0.56246000 </v>
    <v>       0.75013000       0.07798000       0.81246000 </v>
    <v>       0.50013000       0.92202000       0.81246000 </v>
   </varray>
  </structure>
  <varray name="forces" >
   <v>      -0.65559885      -0.07510827      -0.50306883 </v>
   <v>       0.16710427      -0.06672482      -1.01340488 </v>
   <v>       0.64940028       0.07265544      -0.01952121 </v>
   <v>      -0.64539364      -0.06738698      -0.08494363 </v>
   <v>       0.13847157      -0.07420506       0.02451429 </v>
   <v>       0.71807669       0.06563571       0.17756252 </v>
   <v>      -0.30567811       0.10453957       0.77472141 </v>
   <v>       0.35081080      -0.12356414      -0.18323225 </v>
   <v>      -0.31825981       0.11093998       0.85271732 </v>
   <v>      -1.33475125      -0.12151357      -0.71733521 </v>
   <v>       1.37886723       0.11499381       0.86716577 </v>
   <v>       0.19482049      -1.04745836       0.06507634 </v>
   <v>      -0.74988837      -0.04043066       0.24435036 </v>
   <v>      -0.59607905      -0.99076914      -0.06154740 </v>
   <v>       0.16584451      -0.03997886      -0.28538295 </v>
   <v>       0.45972497       0.06587740       0.27060266 </v>
   <v>       0.06084014       1.04774453       0.07933244 </v>
   <v>       0.17120866      -0.03695984      -0.28941630 </v>
   <v>       0.29626431       1.06685165      -0.07705045 </v>
   <v>       0.10722688      -0.97577449      -0.25003753 </v>
   <v>      -0.64120593      -0.12301358      -0.45700285 </v>
   <v>      -0.76652165       1.10321044       0.26392547 </v>
   <v>       0.30452284      -2.05282966       0.47177447 </v>
   <v>      -0.04907810       2.13333072      -0.47243691 </v>
   <v>       0.56951810      -1.10407234      -0.23808023 </v>
   <v>       0.44477855       0.04257258       0.42210071 </v>
   <v>       0.02683704       0.97896398       0.24241714 </v>
   <v>       0.34311267       0.12590140      -0.27538032 </v>
   <v>       0.05569464      -0.25469249      -0.04644646 </v>
   <v>       0.04654955       0.13989311       0.22556721 </v>
   <v>       0.31205972      -0.15312895       0.05025815 </v>
   <v>      -0.19150410       0.18875596      -0.04973033 </v>
   <v>      -0.20094759      -0.06760096      -0.24206755 </v>
   <v>      -0.15895819       0.22225425       0.04914351 </v>
   <v>      -0.21114563      -0.20585901       0.26543686 </v>
   <v>       0.46249872       0.06442848       0.31085248 </v>
   <v>      -0.08585399      -0.21277555       0.07978080 </v>
   <v>      -0.13081277      -0.10034324      -0.28578932 </v>
   <v>       0.49004894      -0.03176126      -0.09584035 </v>
   <v>      -0.45941190       0.10196687       0.12101822 </v>
   <v>       0.07288310       0.04518027       0.30585823 </v>
   <v>       0.08439302       0.22429349      -0.08747756 </v>
   <v>      -0.44138112      -0.09557995      -0.33068035 </v>
   <v>      -2.05290415      -0.13679988      -0.25658612 </v>
   <v>       2.22690486       0.07541965      -0.25513666 </v>
   <v>       1.78615250       0.75018478      -0.35201762 </v>
   <v>      -1.68065663      -0.88186534      -0.33872998 </v>
   <v>      -1.54363093       0.94061299       0.35699850 </v>
   <v>       1.39115630      -0.88074705       0.35885707 </v>
   <v>       0.80281522       0.13476262       0.41625514 </v>
   <v>      -0.97840868       0.00801864       0.39520607 </v>
   <v>       0.08852298      -1.74317166       1.16421325 </v>
   <v>       1.44804150       0.24962964       1.25510502 </v>
   <v>       1.89687219      -0.95286136      -0.66750113 </v>
   <v>      -0.56241177      -0.83362374      -0.68834216 </v>
   <v>      -0.67942605       0.81199179       0.66341436 </v>
   <v>      -0.90473889       0.89860046       0.56993023 </v>
   <v>      -0.29446214      -0.07559004      -1.38554385 </v>
   <v>      -1.07291395       1.67698005      -1.33442560 </v>
  </varray>
  <varray name="stress" >
   <v>     -11.18504520      -0.14847811      -0.82430654 </v>
   <v>      -0.14847786     -13.64256508      -0.08325202 </v>
   <v>      -0.82430671      -0.08325191       2.28544990 </v>
  </varray>
  <energy>
   <i name="e_fr_energy">   -299.71997630 </i>
   <i name="e_wo_entrp">   -299.71997630 </i>
   <i name="e_0_energy">      0.00000000 </i>
  </energy>
  <time name="totalsc"> 1440.00 1454.00</time>
 </calculation>
 <calculation>
  <scstep>
   <time name="dav">   60.30   60.59</time>
   <time name="total">   61.11   61.41</time>
   <energy>
    <i name="alphaZ">   1075.43838715 </i>
    <i name="ewald"> -30507.31886797 </i>
    <i name="hartreedc"> -13020.98369694 </i>
    <i name="XCdc">   1279.82120389 </i>
    <i name="pawpsdc">  43631.14449176 </i>
    <i name="pawaedc"> -42941.72074916 </i>
    <i name="eentropy">      0.00000000 </i>
    <i name="bandstr">  -3828.93828097 </i>
    <i name="atom">  44026.03258983 </i>
    <i name="e_fr_energy">   -286.52492241 </i>
    <i name="e_wo_entrp">   -286.52492241 </i>
    <i name="e_0_energy">   -286.52492241 </i>
   </energy>
  </scstep>
  <scstep>
   <time name="dav">   70.68   71.16</time>
   <time name="total">   71.47   71.95</time>
   <energy>
    <i name="e_fr_energy">   -289.77283721 </i>
    <i name="e_wo_entrp">   -289.77283721 </i>
    <i name="e_0_energy">   -289.77283721 </i>
   </energy>
  </scstep>
  <scstep>
   <time name="dav">   83.27   83.85</time>
   <time name="total">   84.05   84.64</time>
   <energy>
    <i name="e_fr_energy">   -289.50197273 </i>
    <i name="e_wo_entrp">   -289.50197273 </i>
    <i name="e_0_energy">   -289.50197273 </i>
   </energy>
  </scstep>
  <scstep>
   <time name="dav">   72.56   73.10</time>
   <time name="total">   73.34   73.89</time>
   <energy>
    <i name="e_fr_energy">   -289.34016794 </i>
    <i name="e_wo_entrp">   -289.34016794 </i>
    <i name="e_0_energy">   -289.34016794 </i>
   </energy>
  </scstep>
  <scstep>
   <time name="dav">   76.63   77.10</time>
   <time name="total">   77.41   77.89</time>
   <energy>
    <i name="e_fr_energy">   -289.33577134 </i>
    <i name="e_wo_entrp">   -289.33577134 </i>
    <i name="e_0_energy">   -289.33577134 </i>
   </energy>
  </scstep>
  <scstep>
   <time name="dav">   81.64   82.14</time>
   <time name="total">   82.42   82.93</time>
   <energy>
    <i name="e_fr_energy">   -289.33355913 </i>
    <i name="e_wo_entrp">   -289.33355913 </i>
    <i name="e_0_energy">   -289.33355913 </i>
   </energy>
  </scstep>
  <scstep>
   <time name="dav">   69.64   70.08</time>
   <time name="total">   70.41   70.87</time>
   <energy>
    <i name="e_fr_energy">   -289.33237471 </i>
    <i name="e_wo_entrp">   -289.33237471 </i>
    <i name="e_0_energy">   -289.33237471 </i>
   </energy>
  </scstep>
  <scstep>
   <time name="dav">   93.02   94.30</time>
   <time name="total">   93.81   95.09</time>
   <energy>
    <i name="e_fr_energy">   -289.33228420 </i>
    <i name="e_wo_entrp">   -289.33228420 </i>
    <i name="e_0_energy">   -289.33228420 </i>
   </energy>
  </scstep>
  <scstep>
   <time name="dav">   69.80   70.25</time>
   <time name="total">   70.59   71.04</time>
   <energy>
    <i name="e_fr_energy">   -289.33231301 </i>
    <i name="e_wo_entrp">   -289.33231301 </i>
    <i name="e_0_energy">   -289.33231301 </i>
   </energy>
  </scstep>
  <scstep>
   <time name="dav">   83.53   84.01</time>
   <time name="total">   84.31   84.80</time>
   <energy>
    <i name="e_fr_energy">   -289.33231237 </i>
    <i name="e_wo_entrp">   -289.33231237 </i>
    <i name="e_0_energy">   -289.33231237 </i>
   </energy>
  </scstep>
  <scstep>
   <time name="dav">   69.55   70.00</time>
   <time name="total">   70.34   70.80</time>
   <energy>
    <i name="e_fr_energy">   -289.33231099 </i>
    <i name="e_wo_entrp">   -289.33231099 </i>
    <i name="e_0_energy">   -289.33231099 </i>
   </energy>
  </scstep>
  <scstep>
   <time name="dav">   64.74   65.08</time>
   <time name="total">   64.81   65.15</time>
   <energy>
    <i name="alphaZ">   1075.43838715 </i>
    <i name="ewald"> -30507.31886797 </i>
    <i name="hartreedc"> -12902.83606212 </i>
    <i name="XCdc">   1274.78749606 </i>
    <i name="pawpsdc">  43977.78300299 </i>
    <i name="pawaedc"> -43290.86953994 </i>
    <i name="eentropy">      0.00000000 </i>
    <i name="bandstr">  -3942.34931662 </i>
    <i name="atom">  44026.03258983 </i>
    <i name="e_fr_energy">   -289.33231063 </i>
    <i name="e_wo_entrp">   -289.33231063 </i>
    <i name="e_0_energy">   -289.33231063 </i>
   </energy>
  </scstep>
  <structure>
   <crystal>
    <varray name="basis" >
     <v>      11.10212890      -0.00101380      -0.00562834 </v>
     <v>      -0.00086834       9.49481441      -0.00048688 </v>
     <v>      -0.00563030      -0.00056864      11.19801042 </v>
    </varray>
    <i name="volume">   1180.41167727 </i>
    <varray name="rec_basis" >
     <v>       0.09007284       0.00000824       0.00004529 </v>
     <v>       0.00000962       0.10532065       0.00000535 </v>
     <v>       0.00004527       0.00000458       0.08930160 </v>
    </varray>
   </crystal>
   <varray name="positions" >
    <v>       0.37256066      -0.00020844       0.43469968 </v>
    <v>       0.62611117       0.99950380       0.43249801 </v>
    <v>       0.87819259       0.00053608       0.43678578 </v>
    <v>       0.12182470       0.99950046       0.68650354 </v>
    <v>       0.87598760      -0.00020389       0.93697576 </v>
    <v>       0.87770898       0.00050071       0.68763603 </v>
    <v>       0.37329080       0.00069673       0.19021227 </v>
    <v>       0.87612398      -0.00045259       0.18607951 </v>
    <v>       0.37401650       0.00072898       0.94054876 </v>
    <v>       0.36884966      -0.00044226       0.68377530 </v>
    <v>       0.63056073       0.00041941       0.69061109 </v>
    <v>       0.00097078       0.28991227       0.06309075 </v>
    <v>       0.24689373       0.70460629       0.06386417 </v>
    <v>       0.24729752       0.29019790       0.31255447 </v>
    <v>       0.50058573       0.70460856       0.31158881 </v>
    <v>       0.50211402       0.29552193       0.06397742 </v>
    <v>       0.75039257       0.71008917       0.06315225 </v>
    <v>       0.75060888       0.29500377       0.31157141 </v>
    <v>       0.00114858       0.71018545       0.31248759 </v>
    <v>       0.00059276       0.29027346       0.56173130 </v>
    <v>       0.24736277       0.70419018       0.56083842 </v>
    <v>       0.24656195       0.30074864       0.81395862 </v>
    <v>       0.50118422       0.69446660       0.81485531 </v>
    <v>       0.49991820       0.30593902       0.56077183 </v>
    <v>       0.75258785       0.69924701       0.56178288 </v>
    <v>       0.75178951       0.29540451       0.81464101 </v>
    <v>       0.99998582       0.70974262       0.81386583 </v>
    <v>       0.25153076       0.32740437       0.06167197 </v>
    <v>       0.00029036       0.67194670       0.06265962 </v>
    <v>       0.50015089       0.32747487       0.31383313 </v>
    <v>       0.25129674       0.67245844       0.31307682 </v>
    <v>       0.74922353       0.32772107       0.06264546 </v>
    <v>       0.49918278       0.67288939       0.06181568 </v>
    <v>       0.99926399       0.32788985       0.31307201 </v>
    <v>       0.74903877       0.67219276       0.31400514 </v>
    <v>       0.25204599       0.32709463       0.56420107 </v>
    <v>      -0.00032052       0.67215791       0.56320419 </v>
    <v>       0.49938546       0.32626441       0.81162706 </v>
    <v>       0.25206489       0.67306997       0.81244653 </v>
    <v>       0.74806733       0.32728377       0.56338209 </v>
    <v>       0.50036454       0.67345765       0.56417952 </v>
    <v>       0.00031421       0.32790013       0.81248261 </v>
    <v>       0.74804515       0.67274841       0.81143339 </v>
    <v>       0.49101035       0.07729072       0.06135305 </v>
    <v>       0.25948057       0.92240001       0.06135930 </v>
    <v>       0.25783843       0.08175989       0.31094134 </v>
    <v>      -0.00712315       0.91757663       0.31099866 </v>
    <v>       0.99320821       0.08271938       0.06400015 </v>
    <v>       0.75587376       0.91758226       0.06400817 </v>
    <v>       0.75359468       0.07865902       0.31425579 </v>
    <v>       0.49590752       0.92206040       0.31416498 </v>
    <v>       0.50025204       0.06919684       0.56748260 </v>
    <v>       0.25611926       0.92327779       0.56787472 </v>
    <v>       0.25831626       0.07317891       0.80958029 </v>
    <v>      -0.00229718       0.91781970       0.80949038 </v>
    <v>       0.99693783       0.08207131       0.56532208 </v>
    <v>       0.74596545       0.92654770       0.56491877 </v>
    <v>       0.74885920       0.07759913       0.80648254 </v>
    <v>       0.49549966       0.93046964       0.80670308 </v>
   </varray>
  </structure>
  <varray name="forces" >
   <v>      -0.33985333      -0.05585843      -0.09485861 </v>
   <v>       0.02549370      -0.03785248      -0.51253522 </v>
   <v>       0.36769871       0.04724315       0.06082173 </v>
   <v>      -0.32600095      -0.03776414       0.00194438 </v>
   <v>       0.03518827      -0.04054492      -0.04162971 </v>
   <v>       0.39765512       0.03496720       0.05329238 </v>
   <v>       0.05432699      -0.02619019       0.29418471 </v>
   <v>       0.03369038      -0.00905612       0.06307902 </v>
   <v>       0.05713784       0.02565718      -0.33020584 </v>
   <v>       0.24162870       0.08446182      -0.09516748 </v>
   <v>      -0.09927536      -0.04178841       0.34453557 </v>
   <v>       0.24643156       1.22015414       0.01864996 </v>
   <v>      -0.37154436      -0.15118317       0.04058254 </v>
   <v>      -0.38418610       0.92439719       0.00763283 </v>
   <v>       0.14022435      -0.27745327      -0.06210436 </v>
   <v>       0.24258539       0.05463154       0.03686995 </v>
   <v>      -0.14227967      -1.11749651       0.01017798 </v>
   <v>       0.04035815       0.39341035      -0.07436409 </v>
   <v>       0.22698844      -1.13665264      -0.01739097 </v>
   <v>       0.03677549       1.05531548      -0.17602579 </v>
   <v>      -0.18034266      -0.06764397      -0.18070707 </v>
   <v>      -0.19706521      -0.12701137       0.13208282 </v>
   <v>       0.07775305       0.17004092       0.10046458 </v>
   <v>       0.02242655      -0.13022715      -0.08508874 </v>
   <v>       0.10379810       0.04678665      -0.10395362 </v>
   <v>       0.06463310       0.24293696       0.14518844 </v>
   <v>       0.08460791      -1.08203417       0.16858467 </v>
   <v>       0.17056838       0.14896897      -0.12975845 </v>
   <v>       0.00657400      -0.16701777       0.00854094 </v>
   <v>      -0.01045902       0.15200865       0.07596151 </v>
   <v>       0.16155335      -0.08906870       0.00322428 </v>
   <v>      -0.03814861       0.12137709      -0.01897410 </v>
   <v>      -0.12004620      -0.12133051      -0.09474220 </v>
   <v>      -0.09808725       0.13508196      -0.00518617 </v>
   <v>      -0.07042070      -0.18643146       0.13079421 </v>
   <v>       0.17743981       0.10031836       0.14984348 </v>
   <v>      -0.02022498      -0.13077941       0.03431767 </v>
   <v>      -0.02295155       0.19648669      -0.09255689 </v>
   <v>       0.18260447      -0.16669348      -0.04374936 </v>
   <v>      -0.18573073       0.22525609       0.07014743 </v>
   <v>       0.01286846      -0.25172451       0.11178279 </v>
   <v>       0.02421762       0.14065482      -0.04212148 </v>
   <v>      -0.16939424      -0.11601078      -0.16986484 </v>
   <v>      -1.25726671       0.14464363       0.16097239 </v>
   <v>       1.22545455      -0.11450286       0.14143228 </v>
   <v>       1.16631773      -0.93742889      -0.13965409 </v>
   <v>      -1.26351653       1.20873337      -0.24768765 </v>
   <v>      -1.22632192      -1.23997473       0.21147220 </v>
   <v>       1.20833294       1.18877925       0.24838373 </v>
   <v>       0.75187822      -0.28709926       0.18241656 </v>
   <v>      -0.73529250       0.15231202       0.23706231 </v>
   <v>       0.08586032       0.65219286       0.44129850 </v>
   <v>       0.27963259      -0.24089527       0.32793928 </v>
   <v>       0.65266051       0.57656382      -0.27388235 </v>
   <v>      -0.48638325       1.19246455      -0.54802409 </v>
   <v>      -0.48544049      -1.17036325       0.54007309 </v>
   <v>      -0.15140548      -0.39488151       0.19067945 </v>
   <v>       0.40027725       0.01408619      -0.57370036 </v>
   <v>      -0.62400424      -0.69697157      -0.59050012 </v>
  </varray>
  <varray name="stress" >
   <v>      12.58616262       1.12129494       0.93393593 </v>
   <v>       1.12129508       9.77608104       1.07707317 </v>
   <v>       0.93393609       1.07707357       6.18063829 </v>
  </varray>
  <energy>
   <i name="e_fr_energy">   -301.98028760 </i>
   <i name="e_wo_entrp">   -301.98028760 </i>
   <i name="e_0_energy">      0.00000000 </i>
  </energy>
  <time name="totalsc"> 1011.01 1017.91</time>
 </calculation>
 <calculation>
  <scstep>
   <time name="dav">   62.02   62.30</time>
   <time name="total">   62.80   63.09</time>
   <energy>
    <i name="alphaZ">   1076.57495025 </i>
    <i name="ewald"> -30513.60370638 </i>
    <i name="hartreedc"> -12910.34099330 </i>
    <i name="XCdc">   1275.43887019 </i>
    <i name="pawpsdc">  43978.02230712 </i>
    <i name="pawaedc"> -43291.11166997 </i>
    <i name="eentropy">      0.00000000 </i>
    <i name="bandstr">  -3930.32569519 </i>
    <i name="atom">  44026.03258983 </i>
    <i name="e_fr_energy">   -289.31334746 </i>
    <i name="e_wo_entrp">   -289.31334746 </i>
    <i name="e_0_energy">   -289.31334746 </i>
   </energy>
  </scstep>
  <scstep>
   <time name="dav">   69.67   70.02</time>
   <time name="total">   70.46   70.82</time>
   <energy>
    <i name="e_fr_energy">   -289.33131309 </i>
    <i name="e_wo_entrp">   -289.33131309 </i>
    <i name="e_0_energy">   -289.33131309 </i>
   </energy>
  </scstep>
  <scstep>
   <time name="dav">   81.78   82.24</time>
   <time name="total">   82.56   83.03</time>
   <energy>
    <i name="e_fr_energy">   -289.32984150 </i>
    <i name="e_wo_entrp">   -289.32984150 </i>
    <i name="e_0_energy">   -289.32984150 </i>
   </energy>
  </scstep>
  <scstep>
   <time name="dav">   71.78   72.34</time>
   <time name="total">   72.56   73.13</time>
   <energy>
    <i name="e_fr_energy">   -289.32885619 </i>
    <i name="e_wo_entrp">   -289.32885619 </i>
    <i name="e_0_energy">   -289.32885619 </i>
   </energy>
  </scstep>
  <scstep>
   <time name="dav">   75.10   75.48</time>
   <time name="total">   75.88   76.26</time>
   <energy>
    <i name="e_fr_energy">   -289.32883536 </i>
    <i name="e_wo_entrp">   -289.32883536 </i>
    <i name="e_0_energy">   -289.32883536 </i>
   </energy>
  </scstep>
  <scstep>
   <time name="dav">   73.34   73.77</time>
   <time name="total">   74.12   74.55</time>
   <energy>
    <i name="e_fr_energy">   -289.32884298 </i>
    <i name="e_wo_entrp">   -289.32884298 </i>
    <i name="e_0_energy">   -289.32884298 </i>
   </energy>
  </scstep>
  <scstep>
   <time name="dav">   72.63   73.07</time>
   <time name="total">   73.42   73.85</time>
   <energy>
    <i name="e_fr_energy">   -289.32883908 </i>
    <i name="e_wo_entrp">   -289.32883908 </i>
    <i name="e_0_energy">   -289.32883908 </i>
   </energy>
  </scstep>
  <scstep>
   <time name="dav">   66.13   66.50</time>
   <time name="total">   66.92   67.28</time>
   <energy>
    <i name="e_fr_energy">   -289.32884160 </i>
    <i name="e_wo_entrp">   -289.32884160 </i>
    <i name="e_0_energy">   -289.32884160 </i>
   </energy>
  </scstep>
  <scstep>
   <time name="dav">   71.27   71.72</time>
   <time name="total">   71.34   71.79</time>
   <energy>
    <i name="alphaZ">   1076.57495025 </i>
    <i name="ewald"> -30513.60370638 </i>
    <i name="hartreedc"> -12901.13899498 </i>
    <i name="XCdc">   1275.04282257 </i>
    <i name="pawpsdc">  44010.39217279 </i>
    <i name="pawaedc"> -43323.77133083 </i>
    <i name="eentropy">      0.00000000 </i>
    <i name="bandstr">  -3938.85734422 </i>
    <i name="atom">  44026.03258983 </i>
    <i name="e_fr_energy">   -289.32884099 </i>
    <i name="e_wo_entrp">   -289.32884099 </i>
    <i name="e_0_energy">   -289.32884099 </i>
   </energy>
  </scstep>
  <structure>
   <crystal>
    <varray name="basis" >
     <v>      11.09632248      -0.00109088      -0.00605625 </v>
     <v>      -0.00093436       9.48874839      -0.00052390 </v>
     <v>      -0.00605837      -0.00061187      11.19919726 </v>
    </varray>
    <i name="volume">   1179.16549153 </i>
    <varray name="rec_basis" >
     <v>       0.09011998       0.00000888       0.00004875 </v>
     <v>       0.00001036       0.10538798       0.00000576 </v>
     <v>       0.00004874       0.00000493       0.08929214 </v>
    </varray>
   </crystal>
   <varray name="positions" >
    <v>       0.37234398      -0.00023749       0.43453479 </v>
    <v>       0.62616620       0.99947801       0.43216610 </v>
    <v>       0.87840714       0.00056417       0.43677950 </v>
    <v>       0.12161146       0.99947441       0.68647561 </v>
    <v>       0.87603335      -0.00023255       0.93698381 </v>
    <v>       0.87794624       0.00052610       0.68769431 </v>
    <v>       0.37318994       0.00073712       0.19046598 </v>
    <v>       0.87623985      -0.00050032       0.18601955 </v>
    <v>       0.37391150       0.00077184       0.94082801 </v>
    <v>       0.36840857      -0.00048926       0.68354012 </v>
    <v>       0.63101642       0.00046390       0.69089536 </v>
    <v>       0.00103512       0.28950764       0.06311208 </v>
    <v>       0.24664603       0.70459065       0.06394408 </v>
    <v>       0.24710055       0.28981515       0.31253420 </v>
    <v>       0.50064047       0.70459312       0.31149536 </v>
    <v>       0.50226595       0.29554740       0.06406613 </v>
    <v>       0.75041271       0.71049392       0.06317827 </v>
    <v>       0.75066539       0.29498950       0.31147664 </v>
    <v>       0.00124647       0.71059758       0.31246242 </v>
    <v>       0.00062811       0.28989651       0.56164940 </v>
    <v>       0.24715085       0.70414263       0.56068862 </v>
    <v>       0.24630879       0.30117479       0.81404495 </v>
    <v>       0.50128484       0.69367361       0.81500985 </v>
    <v>       0.49990197       0.30676311       0.56061712 </v>
    <v>       0.75277593       0.69882053       0.56170498 </v>
    <v>       0.75193653       0.29542098       0.81477934 </v>
    <v>       0.99999476       0.71012079       0.81394525 </v>
    <v>       0.25164407       0.32745301       0.06158183 </v>
    <v>       0.00030874       0.67184832       0.06264441 </v>
    <v>       0.50016631       0.32752891       0.31390703 </v>
    <v>       0.25139984       0.67239930       0.31309333 </v>
    <v>       0.74916026       0.32779398       0.06262914 </v>
    <v>       0.49911635       0.67286326       0.06173636 </v>
    <v>       0.99921149       0.32797570       0.31308809 </v>
    <v>       0.74896905       0.67211323       0.31409204 </v>
    <v>       0.25219884       0.32711954       0.56430296 </v>
    <v>      -0.00034887       0.67207571       0.56323030 </v>
    <v>       0.49934219       0.32622564       0.81153343 </v>
    <v>       0.25222677       0.67305771       0.81241522 </v>
    <v>       0.74791558       0.32732315       0.56342166 </v>
    <v>       0.50038867       0.67347511       0.56427972 </v>
    <v>       0.00034209       0.32798677       0.81245397 </v>
    <v>       0.74789927       0.67271147       0.81132501 </v>
    <v>       0.49033208       0.07723780       0.06126866 </v>
    <v>       0.26021624       0.92242922       0.06127610 </v>
    <v>       0.25842850       0.08204974       0.31082635 </v>
    <v>      -0.00767848       0.91723590       0.31088742 </v>
    <v>       0.99269832       0.08308269       0.06411684 </v>
    <v>       0.75633340       0.91724209       0.06412592 </v>
    <v>       0.75385998       0.07871111       0.31439227 </v>
    <v>       0.49558434       0.92206347       0.31429427 </v>
    <v>       0.50028142       0.06852348       0.56786392 </v>
    <v>       0.25659787       0.92337429       0.56828607 </v>
    <v>       0.25894280       0.07281087       0.80936196 </v>
    <v>      -0.00248313       0.91749764       0.80926481 </v>
    <v>       0.99671350       0.08238497       0.56553927 </v>
    <v>       0.74566667       0.92689480       0.56510531 </v>
    <v>       0.74876169       0.07756989       0.80602867 </v>
    <v>       0.49514503       0.93111740       0.80626584 </v>
   </varray>
  </structure>
  <varray name="forces" >
   <v>      -0.31533956      -0.05606767      -0.06266993 </v>
   <v>       0.01545652      -0.03618220      -0.47615233 </v>
   <v>       0.34554403       0.04589290       0.06724411 </v>
   <v>      -0.30181182      -0.03584758       0.00829057 </v>
   <v>       0.02719146      -0.03806741      -0.04676088 </v>
   <v>       0.37161252       0.03296862       0.04359510 </v>
   <v>       0.08822765      -0.04046852       0.25105723 </v>
   <v>       0.00611409       0.00099093       0.08339401 </v>
   <v>       0.08769286       0.02194296      -0.43667700 </v>
   <v>       0.39029531       0.11287543      -0.03350495 </v>
   <v>      -0.22848108      -0.06290585       0.29498961 </v>
   <v>       0.25939526       1.44487214       0.01357390 </v>
   <v>      -0.33934812      -0.15624909       0.02506509 </v>
   <v>      -0.37496088       1.10538312       0.01424382 </v>
   <v>       0.13787701      -0.29579612      -0.04663197 </v>
   <v>       0.22362318       0.05101193       0.02012880 </v>
   <v>      -0.16565485      -1.33343757       0.00321686 </v>
   <v>       0.02901092       0.42891155      -0.05848590 </v>
   <v>       0.23071377      -1.35319943      -0.01141228 </v>
   <v>       0.03515650       1.25477728      -0.17383093 </v>
   <v>      -0.14334314      -0.06148310      -0.15888329 </v>
   <v>      -0.14982679      -0.20202329       0.12060980 </v>
   <v>       0.05866901       0.28176573       0.07179502 </v>
   <v>       0.02790691      -0.24153834      -0.05549925 </v>
   <v>       0.06568925       0.11699169      -0.09267478 </v>
   <v>       0.03472203       0.25762563       0.12450223 </v>
   <v>       0.09168585      -1.28513339       0.16657448 </v>
   <v>       0.15700933       0.15043492      -0.11830290 </v>
   <v>       0.00035914      -0.15941319       0.01322739 </v>
   <v>      -0.01502638       0.15291532       0.06370980 </v>
   <v>       0.14964755      -0.08368044      -0.00047618 </v>
   <v>      -0.02418502       0.11612327      -0.01657199 </v>
   <v>      -0.11376406      -0.12528616      -0.08271377 </v>
   <v>      -0.09396130       0.12724123      -0.00981340 </v>
   <v>      -0.05823574      -0.18455065       0.12035607 </v>
   <v>       0.15325415       0.10200445       0.13798380 </v>
   <v>      -0.01435407      -0.12386705       0.03129239 </v>
   <v>      -0.01404755       0.21679562      -0.07803718 </v>
   <v>       0.15712183      -0.17589180      -0.03989175 </v>
   <v>      -0.16272113       0.23393592       0.06651113 </v>
   <v>       0.00836131      -0.27222948       0.09727692 </v>
   <v>       0.01772869       0.13374200      -0.03909901 </v>
   <v>      -0.14563644      -0.11684378      -0.15805388 </v>
   <v>      -1.18691496       0.17584306       0.20131083 </v>
   <v>       1.13604700      -0.14271881       0.18309469 </v>
   <v>       1.12091787      -1.09311631      -0.11918178 </v>
   <v>      -1.23849970       1.41211805      -0.24101195 </v>
   <v>      -1.20891635      -1.45379908       0.20010629 </v>
   <v>       1.20051693       1.39426574       0.24029377 </v>
   <v>       0.74847368      -0.32177991       0.16497938 </v>
   <v>      -0.71524997       0.16277632       0.22643700 </v>
   <v>       0.08745953       0.77817271       0.38126228 </v>
   <v>       0.16161009      -0.29868824       0.22646314 </v>
   <v>       0.54228573       0.68332255      -0.22967353 </v>
   <v>      -0.48254052       1.39139954      -0.54082093 </v>
   <v>      -0.47334883      -1.36444228       0.53386052 </v>
   <v>      -0.08792445      -0.47966679       0.15484750 </v>
   <v>       0.46922536       0.03224815      -0.49654775 </v>
   <v>      -0.58250959      -0.82497524      -0.52791403 </v>
  </varray>
  <varray name="stress" >
   <v>      14.60761625       1.26978185       1.08037973 </v>
   <v>       1.26978169      12.53332088       1.20318443 </v>
   <v>       1.08037948       1.20318454       6.66017750 </v>
  </varray>
  <energy>
   <i name="e_fr_energy">   -301.98768664 </i>
   <i name="e_wo_entrp">   -301.98768664 </i>
   <i name="e_0_energy">      0.00000000 </i>
  </energy>
  <time name="totalsc">  756.76  761.06</time>
 </calculation>
 <calculation>
  <scstep>
   <time name="dav">   68.69   68.93</time>
   <time name="total">   69.47   69.71</time>
   <energy>
    <i name="alphaZ">   1061.94341567 </i>
    <i name="ewald"> -30472.03690226 </i>
    <i name="hartreedc"> -12746.75055126 </i>
    <i name="XCdc">   1266.77160013 </i>
    <i name="pawpsdc">  44010.33647839 </i>
    <i name="pawaedc"> -43323.71556856 </i>
    <i name="eentropy">      0.00000000 </i>
    <i name="bandstr">  -4111.17412700 </i>
    <i name="atom">  44026.03258983 </i>
    <i name="e_fr_energy">   -288.59306506 </i>
    <i name="e_wo_entrp">   -288.59306506 </i>
    <i name="e_0_energy">   -288.59306506 </i>
   </energy>
  </scstep>
  <scstep>
   <time name="dav">   69.62   69.92</time>
   <time name="total">   70.40   70.71</time>
   <energy>
    <i name="e_fr_energy">   -290.50480978 </i>
    <i name="e_wo_entrp">   -290.50480978 </i>
    <i name="e_0_energy">   -290.50480978 </i>
   </energy>
  </scstep>
  <scstep>
   <time name="dav">   81.09   81.42</time>
   <time name="total">   81.87   82.21</time>
   <energy>
    <i name="e_fr_energy">   -290.37857861 </i>
    <i name="e_wo_entrp">   -290.37857861 </i>
    <i name="e_0_energy">   -290.37857861 </i>
   </energy>
  </scstep>
  <scstep>
   <time name="dav">   76.69   77.01</time>
   <time name="total">   77.47   77.80</time>
   <energy>
    <i name="e_fr_energy">   -290.32768310 </i>
    <i name="e_wo_entrp">   -290.32768310 </i>
    <i name="e_0_energy">   -290.32768310 </i>
   </energy>
  </scstep>
  <scstep>
   <time name="dav">   69.34   69.54</time>
   <time name="total">   70.13   70.33</time>
   <energy>
    <i name="e_fr_energy">   -290.30083885 </i>
    <i name="e_wo_entrp">   -290.30083885 </i>
    <i name="e_0_energy">   -290.30083885 </i>
   </energy>
  </scstep>
  <scstep>
   <time name="dav">   77.05   77.10</time>
   <time name="total">   77.84   77.89</time>
   <energy>
    <i name="e_fr_energy">   -290.29995864 </i>
    <i name="e_wo_entrp">   -290.29995864 </i>
    <i name="e_0_energy">   -290.29995864 </i>
   </energy>
  </scstep>
  <scstep>
   <time name="dav">   73.38   73.92</time>
   <time name="total">   74.17   74.71</time>
   <energy>
    <i name="e_fr_energy">   -290.29990712 </i>
    <i name="e_wo_entrp">   -290.29990712 </i>
    <i name="e_0_energy">   -290.29990712 </i>
   </energy>
  </scstep>
  <scstep>
   <time name="dav">   97.26   97.79</time>
   <time name="total">   98.02   98.58</time>
   <energy>
    <i name="e_fr_energy">   -290.29980392 </i>
    <i name="e_wo_entrp">   -290.29980392 </i>
    <i name="e_0_energy">   -290.29980392 </i>
   </energy>
  </scstep>
  <scstep>
   <time name="dav">   75.14   75.54</time>
   <time name="total">   75.93   76.34</time>
   <energy>
    <i name="e_fr_energy">   -290.29978735 </i>
    <i name="e_wo_entrp">   -290.29978735 </i>
    <i name="e_0_energy">   -290.29978735 </i>
   </energy>
  </scstep>
  <scstep>
   <time name="dav">   84.15   84.64</time>
   <time name="total">   84.94   85.43</time>
   <energy>
    <i name="e_fr_energy">   -290.29979154 </i>
    <i name="e_wo_entrp">   -290.29979154 </i>
    <i name="e_0_energy">   -290.29979154 </i>
   </energy>
  </scstep>
  <scstep>
   <time name="dav">   63.64   63.92</time>
   <time name="total">   64.42   64.71</time>
   <energy>
    <i name="e_fr_energy">   -290.29979451 </i>
    <i name="e_wo_entrp">   -290.29979451 </i>
    <i name="e_0_energy">   -290.29979451 </i>
   </energy>
  </scstep>
  <scstep>
   <time name="dav">   64.78   65.17</time>
   <time name="total">   65.57   65.96</time>
   <energy>
    <i name="e_fr_energy">   -290.29979665 </i>
    <i name="e_wo_entrp">   -290.29979665 </i>
    <i name="e_0_energy">   -290.29979665 </i>
   </energy>
  </scstep>
  <scstep>
   <time name="dav">   53.04   53.37</time>
   <time name="total">   53.11   53.44</time>
   <energy>
    <i name="alphaZ">   1061.94341567 </i>
    <i name="ewald"> -30472.03690226 </i>
    <i name="hartreedc"> -12872.96781334 </i>
    <i name="XCdc">   1272.59906804 </i>
    <i name="pawpsdc">  43541.98618488 </i>
    <i name="pawaedc"> -42849.67046325 </i>
    <i name="eentropy">      0.00000000 </i>
    <i name="bandstr">  -3998.18587703 </i>
    <i name="atom">  44026.03258983 </i>
    <i name="e_fr_energy">   -290.29979746 </i>
    <i name="e_wo_entrp">   -290.29979746 </i>
    <i name="e_0_energy">   -290.29979746 </i>
   </energy>
  </scstep>
  <structure>
   <crystal>
    <varray name="basis" >
     <v>      11.15717561       0.00700240      -0.00157495 </v>
     <v>       0.00598798       9.52159068       0.00620518 </v>
     <v>      -0.00153925       0.00732705      11.25263528 </v>
    </varray>
    <i name="volume">   1195.41212049 </i>
    <varray name="rec_basis" >
     <v>       0.08962846      -0.00005637       0.00001230 </v>
     <v>      -0.00006592       0.10502455      -0.00006839 </v>
     <v>       0.00001258      -0.00005792       0.08886811 </v>
    </varray>
   </crystal>
   <varray name="positions" >
    <v>       0.36951620      -0.00071957       0.43316803 </v>
    <v>       0.62659786       0.99912022       0.42788596 </v>
    <v>       0.88135404       0.00098740       0.43703284 </v>
    <v>       0.11886641       0.99911655       0.68632612 </v>
    <v>       0.87645637      -0.00061896       0.93683270 </v>
    <v>       0.88115872       0.00086470       0.68827184 </v>
    <v>       0.37291172       0.00079601       0.19324410 </v>
    <v>       0.87703474      -0.00081143       0.18598723 </v>
    <v>       0.37360185       0.00116907       0.94076771 </v>
    <v>       0.36720844      -0.00021797       0.68183708 </v>
    <v>       0.63302815       0.00043402       0.69406735 </v>
    <v>       0.00260701       0.29428410       0.06331366 </v>
    <v>       0.24350694       0.70368034       0.06458194 </v>
    <v>       0.24414094       0.29298392       0.31246154 </v>
    <v>       0.50161149       0.70296408       0.31067289 </v>
    <v>       0.50425974       0.29597961       0.06474219 </v>
    <v>       0.74981449       0.70629350       0.06336388 </v>
    <v>       0.75116793       0.29710871       0.31059351 </v>
    <v>       0.00291286       0.70634431       0.31224610 </v>
    <v>       0.00101763       0.29387507       0.56034728 </v>
    <v>       0.24511355       0.70351003       0.55900143 </v>
    <v>       0.24397026       0.30295602       0.81514367 </v>
    <v>       0.50221083       0.68987298       0.81634742 </v>
    <v>       0.49991737       0.31097756       0.55934991 </v>
    <v>       0.75431190       0.69659812       0.56078403 </v>
    <v>       0.75306436       0.29685992       0.81624002 </v>
    <v>       0.00045852       0.70599381       0.81519957 </v>
    <v>       0.25308766       0.32855188       0.06046800 </v>
    <v>       0.00043210       0.67037352       0.06260152 </v>
    <v>       0.50020241       0.32867636       0.31467496 </v>
    <v>       0.25274346       0.67157554       0.31320095 </v>
    <v>       0.74863429       0.32887648       0.06244857 </v>
    <v>       0.49817378       0.67204337       0.06084905 </v>
    <v>       0.99844893       0.32920134       0.31315141 </v>
    <v>       0.74825027       0.67063367       0.31519365 </v>
    <v>       0.25388847       0.32781125       0.56558157 </v>
    <v>      -0.00060010       0.67089167       0.56354000 </v>
    <v>       0.49899337       0.32708765       0.81057214 </v>
    <v>       0.25399273       0.67206872       0.81203380 </v>
    <v>       0.74619210       0.32879148       0.56397414 </v>
    <v>       0.50058561       0.67218575       0.56536857 </v>
    <v>       0.00060499       0.32925127       0.81209345 </v>
    <v>       0.74628941       0.67186342       0.80991566 </v>
    <v>       0.48059960       0.07779411       0.06158726 </v>
    <v>       0.27010543       0.92188680       0.06152875 </v>
    <v>       0.26728496       0.07832899       0.30954624 </v>
    <v>      -0.01682454       0.92226585       0.30909402 </v>
    <v>       0.98398382       0.07798593       0.06576131 </v>
    <v>       0.76467894       0.92218500       0.06595987 </v>
    <v>       0.75892175       0.07739592       0.31601928 </v>
    <v>       0.49028668       0.92292368       0.31613889 </v>
    <v>       0.50086348       0.06807792       0.57205669 </v>
    <v>       0.26048301       0.92247234       0.57200079 </v>
    <v>       0.26548747       0.07389915       0.80691335 </v>
    <v>      -0.00584578       0.92254467       0.80540512 </v>
    <v>       0.99313858       0.07742089       0.56931071 </v>
    <v>       0.74329908       0.92671923       0.56701737 </v>
    <v>       0.75018529       0.07754267       0.80085273 </v>
    <v>       0.49022245       0.93115138       0.80106018 </v>
   </varray>
  </structure>
  <varray name="forces" >
   <v>      -0.16381425      -0.06714766       0.12863167 </v>
   <v>       0.02699625      -0.02853624      -0.23796718 </v>
   <v>       0.22295320       0.06012242       0.09136240 </v>
   <v>      -0.21414400      -0.03915057       0.01749094 </v>
[...]
       <r>    8.6742    0.0000 </r>
       <r>    8.7356    0.0000 </r>
       <r>    8.7527    0.0000 </r>
       <r>    8.7683    0.0000 </r>
       <r>    8.8057    0.0000 </r>
       <r>    9.0670    0.0000 </r>
       <r>    9.1420    0.0000 </r>
       <r>    9.8582    0.0000 </r>
       <r>   10.0362    0.0000 </r>
      </set>
     </set>
    </set>
   </array>
  </eigenvalues>
  <separator name="orbital magnetization" >
   <v name="MAGDIPOLOUT">      0.00000000      0.00000000      0.00000000</v>
  </separator>
  <dos>
   <i name="efermi">      4.10262896 </i>
   <total>
    <array>
     <dimension dim="1">gridpoints</dimension>
     <dimension dim="2">spin</dimension>
     <field>energy</field>
     <field>total</field>
     <field>integrated</field>
     <set>
      <set comment="spin 1">
       <r>   -42.8746     0.0000     0.0000 </r>
       <r>   -42.6899     0.0000     0.0000 </r>
       <r>   -42.5051     0.0000     0.0000 </r>
       <r>   -42.3203     0.0000     0.0000 </r>
       <r>   -42.1356     0.0000     0.0000 </r>
       <r>   -41.9508     0.0000     0.0000 </r>
       <r>   -41.7660     0.0000     0.0000 </r>
       <r>   -41.5812     0.0000     0.0000 </r>
       <r>   -41.3965     0.0000     0.0000 </r>
       <r>   -41.2117     0.0000     0.0000 </r>
       <r>   -41.0269     0.0000     0.0000 </r>
       <r>   -40.8422     0.0000     0.0000 </r>
       <r>   -40.6574     0.0000     0.0000 </r>
       <r>   -40.4726     0.0000     0.0000 </r>
       <r>   -40.2879     0.0000     2.0000 </r>
       <r>   -40.1031     0.0000     4.0000 </r>
       <r>   -39.9183     0.0000     6.0000 </r>
       <r>   -39.7336     0.0000     6.0000 </r>
       <r>   -39.5488     0.0000     6.0000 </r>
       <r>   -39.3640     0.0000    10.0000 </r>
       <r>   -39.1793     0.0000    12.0000 </r>
       <r>   -38.9945     0.0000    12.0000 </r>
       <r>   -38.8097     0.0000    12.0000 </r>
       <r>   -38.6250     0.0000    12.0000 </r>
       <r>   -38.4402     0.0000    12.0000 </r>
       <r>   -38.2554     0.0000    12.0000 </r>
       <r>   -38.0707     0.0000    12.0000 </r>
       <r>   -37.8859     0.0000    12.0000 </r>
       <r>   -37.7011     0.0000    12.0000 </r>
       <r>   -37.5164     0.0000    12.0000 </r>
       <r>   -37.3316     0.0000    12.0000 </r>
       <r>   -37.1468     0.0000    12.0000 </r>
       <r>   -36.9620     0.0000    12.0000 </r>
       <r>   -36.7773     0.0000    12.0000 </r>
       <r>   -36.5925     0.0000    12.0000 </r>
       <r>   -36.4077     0.0000    12.0000 </r>
       <r>   -36.2230     0.0000    12.0000 </r>
       <r>   -36.0382     0.0000    12.0000 </r>
       <r>   -35.8534     0.0000    12.0000 </r>
       <r>   -35.6687     0.0000    12.0000 </r>
       <r>   -35.4839     0.0000    12.0000 </r>
       <r>   -35.2991     0.0000    12.0000 </r>
       <r>   -35.1144     0.0000    12.0000 </r>
       <r>   -34.9296     0.0000    12.0000 </r>
       <r>   -34.7448     0.0000    12.0000 </r>
       <r>   -34.5601     0.0000    12.0000 </r>
       <r>   -34.3753     0.0000    12.0000 </r>
       <r>   -34.1905     0.0000    12.0000 </r>
       <r>   -34.0058     0.0000    12.0000 </r>
       <r>   -33.8210     0.0000    12.0000 </r>
       <r>   -33.6362     0.0000    12.0000 </r>
       <r>   -33.4515     0.0000    12.0000 </r>
       <r>   -33.2667     0.0000    12.0000 </r>
       <r>   -33.0819     0.0000    12.0000 </r>
       <r>   -32.8972     0.0000    12.0000 </r>
       <r>   -32.7124     0.0000    12.0000 </r>
       <r>   -32.5276     0.0000    12.0000 </r>
       <r>   -32.3429     0.0000    12.0000 </r>
       <r>   -32.1581     0.0000    12.0000 </r>
       <r>   -31.9733     0.0000    12.0000 </r>
       <r>   -31.7885     0.0000    12.0000 </r>
       <r>   -31.6038     0.0000    12.0000 </r>
       <r>   -31.4190     0.0000    12.0000 </r>
       <r>   -31.2342     0.0000    12.0000 </r>
       <r>   -31.0495     0.0000    12.0000 </r>
       <r>   -30.8647     0.0000    12.0000 </r>
       <r>   -30.6799     0.0000    12.0000 </r>
       <r>   -30.4952     0.0000    12.0000 </r>
       <r>   -30.3104     0.0000    12.0000 </r>
       <r>   -30.1256     0.0000    12.0000 </r>
       <r>   -29.9409     0.0000    12.0000 </r>
       <r>   -29.7561     0.0000    12.0000 </r>
       <r>   -29.5713     0.0000    12.0000 </r>
       <r>   -29.3866     0.0000    12.0000 </r>
       <r>   -29.2018     0.0000    12.0000 </r>
       <r>   -29.0170     0.0000    12.0000 </r>
       <r>   -28.8323     0.0000    12.0000 </r>
       <r>   -28.6475     0.0000    12.0000 </r>
       <r>   -28.4627     0.0000    12.0000 </r>
       <r>   -28.2780     0.0000    12.0000 </r>
       <r>   -28.0932     0.0000    12.0000 </r>
       <r>   -27.9084     0.0000    12.0000 </r>
       <r>   -27.7237     0.0000    12.0000 </r>
       <r>   -27.5389     0.0000    12.0000 </r>
       <r>   -27.3541     0.0000    12.0000 </r>
       <r>   -27.1693     0.0000    12.0000 </r>
       <r>   -26.9846     0.0000    12.0000 </r>
       <r>   -26.7998     0.0000    12.0000 </r>
       <r>   -26.6150     0.0000    12.0000 </r>
       <r>   -26.4303     0.0000    12.0000 </r>
       <r>   -26.2455     0.0000    12.0000 </r>
       <r>   -26.0607     0.0000    12.0000 </r>
       <r>   -25.8760     0.0000    12.0000 </r>
       <r>   -25.6912     0.0000    12.0000 </r>
       <r>   -25.5064     0.0000    12.0000 </r>
       <r>   -25.3217     0.0000    12.0000 </r>
       <r>   -25.1369     0.0000    12.0000 </r>
       <r>   -24.9521     0.0000    12.0000 </r>
       <r>   -24.7674     0.0000    12.0000 </r>
       <r>   -24.5826     0.0000    12.0000 </r>
       <r>   -24.3978     0.0000    12.0000 </r>
       <r>   -24.2131     0.0000    12.0000 </r>
       <r>   -24.0283     0.0000    12.0000 </r>
       <r>   -23.8435     0.0000    12.0000 </r>
       <r>   -23.6588     0.0000    12.0000 </r>
       <r>   -23.4740     0.0000    12.0000 </r>
       <r>   -23.2892     0.0000    12.0000 </r>
       <r>   -23.1045     0.0000    12.0000 </r>
       <r>   -22.9197     0.0000    12.0000 </r>
       <r>   -22.7349     0.0000    12.0000 </r>
       <r>   -22.5501     0.0000    12.0000 </r>
       <r>   -22.3654     0.0000    12.0000 </r>
       <r>   -22.1806     0.0000    12.0000 </r>
       <r>   -21.9958     0.0000    12.0000 </r>
       <r>   -21.8111     0.0000    12.0000 </r>
       <r>   -21.6263     0.0000    12.0000 </r>
       <r>   -21.4415     0.0000    12.0000 </r>
       <r>   -21.2568     0.0000    12.0000 </r>
       <r>   -21.0720     0.0000    12.0000 </r>
       <r>   -20.8872     0.0000    12.0000 </r>
       <r>   -20.7025     0.0000    12.0000 </r>
       <r>   -20.5177     0.0000    12.0000 </r>
       <r>   -20.3329     0.0000    12.0000 </r>
       <r>   -20.1482     0.0000    12.0000 </r>
       <r>   -19.9634     0.0000    12.0000 </r>
       <r>   -19.7786     0.0000    12.0000 </r>
       <r>   -19.5939     0.0000    12.0000 </r>
       <r>   -19.4091     0.0000    12.0000 </r>
       <r>   -19.2243     0.0000    12.0000 </r>
       <r>   -19.0396     0.0000    12.0000 </r>
       <r>   -18.8548 16786.7926    54.8571 </r>
       <r>   -18.6700     0.0000   124.0000 </r>
       <r>   -18.4853     0.0000   162.0000 </r>
       <r>   -18.3005     0.0000   172.0000 </r>
       <r>   -18.1157     0.0000   172.0000 </r>
       <r>   -17.9309     0.0000   172.0000 </r>
       <r>   -17.7462     0.0000   172.0000 </r>
       <r>   -17.5614     0.0000   172.0000 </r>
       <r>   -17.3766     0.0000   172.0000 </r>
       <r>   -17.1919     0.0000   172.0000 </r>
       <r>   -17.0071     0.0000   172.0000 </r>
       <r>   -16.8223     0.0000   172.0000 </r>
       <r>   -16.6376     0.0000   172.0000 </r>
       <r>   -16.4528     0.0000   172.0000 </r>
       <r>   -16.2680     0.0000   172.0000 </r>
       <r>   -16.0833     0.0000   172.0000 </r>
       <r>   -15.8985     0.0000   172.0000 </r>
       <r>   -15.7137     0.0000   172.0000 </r>
       <r>   -15.5290     0.0000   172.0000 </r>
       <r>   -15.3442     0.0000   172.0000 </r>
       <r>   -15.1594     0.0000   172.0000 </r>
       <r>   -14.9747     0.0000   172.0000 </r>
       <r>   -14.7899     0.0000   172.0000 </r>
       <r>   -14.6051     0.0000   172.0000 </r>
       <r>   -14.4204     0.0000   172.0000 </r>
       <r>   -14.2356     0.0000   172.0000 </r>
       <r>   -14.0508     0.0000   172.0000 </r>
       <r>   -13.8661     0.0000   172.0000 </r>
       <r>   -13.6813     0.0000   172.0000 </r>
       <r>   -13.4965     0.0000   174.0000 </r>
       <r>   -13.3118     0.0000   174.0000 </r>
       <r>   -13.1270     0.0000   182.0000 </r>
       <r>   -12.9422     0.0000   188.0000 </r>
       <r>   -12.7574     0.0000   194.0000 </r>
       <r>   -12.5727     0.0000   202.0000 </r>
       <r>   -12.3879     0.0000   204.0000 </r>
       <r>   -12.2031     0.0000   204.0000 </r>
       <r>   -12.0184     0.0000   204.0000 </r>
       <r>   -11.8336     0.0000   204.0000 </r>
       <r>   -11.6488     0.0000   204.0000 </r>
       <r>   -11.4641     0.0000   204.0000 </r>
       <r>   -11.2793     0.0000   204.0000 </r>
       <r>   -11.0945     0.0000   204.0000 </r>
       <r>   -10.9098     0.0000   204.0000 </r>
       <r>   -10.7250     0.0000   204.0000 </r>
       <r>   -10.5402     0.0000   204.0000 </r>
       <r>   -10.3555     0.0000   204.0000 </r>
       <r>   -10.1707     0.0000   204.0000 </r>
       <r>    -9.9859     0.0000   204.0000 </r>
       <r>    -9.8012     0.0000   204.0000 </r>
       <r>    -9.6164     0.0000   204.0000 </r>
       <r>    -9.4316    13.9909   205.2866 </r>
       <r>    -9.2469    13.1351   206.2344 </r>
       <r>    -9.0621     3.1609   208.0161 </r>
       <r>    -8.8773    20.1614   210.0686 </r>
       <r>    -8.6926    25.2012   212.9938 </r>
       <r>    -8.5078    18.0737   217.2438 </r>
       <r>    -8.3230     0.0000   220.0000 </r>
       <r>    -8.1382    37.8247   224.1536 </r>
       <r>    -7.9535    28.1633   230.1927 </r>
       <r>    -7.7687    20.8805   232.5379 </r>
       <r>    -7.5839     2.9155   235.9702 </r>
       <r>    -7.3992     0.0000   236.0000 </r>
       <r>    -7.2144     0.0000   236.0000 </r>
       <r>    -7.0296     0.0000   236.0000 </r>
       <r>    -6.8449     0.0000   236.0000 </r>
       <r>    -6.6601     0.0000   236.0000 </r>
       <r>    -6.4753     6.4832   236.1920 </r>
       <r>    -6.2906    20.2287   239.7180 </r>
       <r>    -6.1058    16.4101   243.3988 </r>
       <r>    -5.9210    22.1554   246.4179 </r>
       <r>    -5.7363    23.0380   251.7829 </r>
       <r>    -5.5515    21.7650   255.7476 </r>
       <r>    -5.3667    13.6255   259.0383 </r>
       <r>    -5.1820     1.4749   260.0308 </r>
       <r>    -4.9972    14.2651   261.6327 </r>
       <r>    -4.8124     8.2492   263.8001 </r>
       <r>    -4.6277     5.2171   264.6913 </r>
       <r>    -4.4429    10.0927   266.0434 </r>
       <r>    -4.2581     3.3813   267.3729 </r>
       <r>    -4.0734     1.6748   267.8353 </r>
       <r>    -3.8886     0.1673   267.9960 </r>
       <r>    -3.7038     0.0000   268.0000 </r>
       <r>    -3.5190     0.0000   268.0000 </r>
       <r>    -3.3343     0.0000   268.0000 </r>
       <r>    -3.1495     0.0000   268.0000 </r>
       <r>    -2.9647     0.0000   268.0000 </r>
       <r>    -2.7800     0.0000   268.0000 </r>
       <r>    -2.5952     0.0000   268.0000 </r>
       <r>    -2.4104     0.0000   268.0000 </r>
       <r>    -2.2257     0.0000   268.0000 </r>
       <r>    -2.0409     0.0000   268.0000 </r>
       <r>    -1.8561     0.0000   268.0000 </r>
       <r>    -1.6714     0.0000   268.0000 </r>
       <r>    -1.4866     0.0951   268.0004 </r>
       <r>    -1.3018     7.9283   268.8637 </r>
       <r>    -1.1171     7.1309   270.2738 </r>
       <r>    -0.9323    12.9786   271.8363 </r>
       <r>    -0.7475    11.9035   274.1913 </r>
       <r>    -0.5628    22.7422   277.0717 </r>
       <r>    -0.3780    33.4623   281.9655 </r>
       <r>    -0.1932    30.5296   288.1233 </r>
       <r>    -0.0085    40.2506   295.4276 </r>
       <r>     0.1763    35.0184   302.5300 </r>
       <r>     0.3611    19.5212   309.2270 </r>
       <r>     0.5458    58.3949   315.8224 </r>
       <r>     0.7306    39.4051   323.2464 </r>
       <r>     0.9154    31.0757   330.9336 </r>
       <r>     1.1001    38.0039   339.3963 </r>
       <r>     1.2849    50.3206   347.7798 </r>
       <r>     1.4697    48.6170   356.1414 </r>
       <r>     1.6545    43.3801   364.9295 </r>
       <r>     1.8392    43.5639   372.7566 </r>
       <r>     2.0240    52.8922   381.4333 </r>
       <r>     2.2088    62.4771   391.0815 </r>
       <r>     2.3935    54.4844   403.8570 </r>
       <r>     2.5783    60.6181   413.7151 </r>
       <r>     2.7631    67.9852   425.9107 </r>
       <r>     2.9478    49.6631   436.7496 </r>
       <r>     3.1326    37.7219   443.8381 </r>
       <r>     3.3174    43.5639   451.0122 </r>
       <r>     3.5021    17.4263   455.6385 </r>
       <r>     3.6869    11.2160   458.4305 </r>
       <r>     3.8717     3.5299   459.7775 </r>
       <r>     4.0564     0.0000   460.0000 </r>
       <r>     4.2412     0.0000   460.0000 </r>
       <r>     4.4260     0.0000   460.0000 </r>
       <r>     4.6107     0.0000   460.0000 </r>
       <r>     4.7955     0.0000   460.0000 </r>
       <r>     4.9803     0.0000   460.0000 </r>
       <r>     5.1650     4.6691   460.3192 </r>
       <r>     5.3498    10.4105   461.8166 </r>
       <r>     5.5346     9.3533   463.7969 </r>
       <r>     5.7193    15.9362   466.8751 </r>
       <r>     5.9041    15.0519   470.3379 </r>
       <r>     6.0889    13.5745   472.9492 </r>
       <r>     6.2737    14.1366   475.4896 </r>
       <r>     6.4584    16.0859   478.2783 </r>
       <r>     6.6432    18.5129   481.4490 </r>
       <r>     6.8280    22.4723   485.1827 </r>
       <r>     7.0127    24.5102   489.8361 </r>
       <r>     7.1975    34.0580   495.0458 </r>
       <r>     7.3823    27.8294   500.2964 </r>
       <r>     7.5670    34.5935   505.9694 </r>
       <r>     7.7518    32.8523   511.9839 </r>
       <r>     7.9366    33.2177   517.9934 </r>
       <r>     8.1213    27.7815   523.8353 </r>
       <r>     8.3061    28.3216   528.7899 </r>
       <r>     8.4909    32.7599   534.5942 </r>
       <r>     8.6756    32.6345   540.5720 </r>
       <r>     8.8604    26.8060   545.9854 </r>
       <r>     9.0452    21.2202   550.5707 </r>
       <r>     9.2299    14.5559   553.9458 </r>
       <r>     9.4147     5.5994   556.2570 </r>
       <r>     9.5995     6.7514   557.3416 </r>
       <r>     9.7842     8.1736   558.8042 </r>
       <r>     9.9690     3.4469   559.9000 </r>
       <r>    10.1538     0.0000   560.0000 </r>
       <r>    10.3385     0.0000   560.0000 </r>
       <r>    10.5233     0.0000   560.0000 </r>
       <r>    10.7081     0.0000   560.0000 </r>
       <r>    10.8929     0.0000   560.0000 </r>
       <r>    11.0776     0.0000   560.0000 </r>
       <r>    11.2624     0.0000   560.0000 </r>
       <r>    11.4472     0.0000   560.0000 </r>
       <r>    11.6319     0.0000   560.0000 </r>
       <r>    11.8167     0.0000   560.0000 </r>
       <r>    12.0015     0.0000   560.0000 </r>
       <r>    12.1862     0.0000   560.0000 </r>
       <r>    12.3710     0.0000   560.0000 </r>
       <r>    12.5558     0.0000   560.0000 </r>
      </set>
     </set>
    </array>
   </total>
  </dos>
 </calculation>
 <structure name="finalpos" >
  <crystal>
   <varray name="basis" >
    <v>      11.25983085       0.16712974       0.02637160 </v>
    <v>       0.14206987       9.63806422      -0.01442292 </v>
    <v>       0.02571551      -0.01539986      11.20162122 </v>
   </varray>
   <i name="volume">   1215.35810738 </i>
   <varray name="rec_basis" >
    <v>       0.08883120      -0.00130972      -0.00020573 </v>
    <v>      -0.00154072       0.10377820       0.00014621 </v>
    <v>      -0.00021112       0.00013671       0.08927346 </v>
   </varray>
  </crystal>
  <varray name="positions" >
   <v>       0.22607023      -0.02793568       0.41208987 </v>
   <v>       0.62468049       0.00362927       0.38688151 </v>
   <v>       0.87525528      -0.00319312       0.44736955 </v>
   <v>       0.09831244       0.98046781       0.67676997 </v>
   <v>       0.87749739      -0.00782385       0.94019635 </v>
   <v>       0.87260012      -0.00275151       0.68573985 </v>
   <v>       0.39644599       0.00439342       0.18898340 </v>
   <v>       0.86864866      -0.00457335       0.19458592 </v>
   <v>       0.39287055       0.00816231       0.92691719 </v>
   <v>       0.37186862       0.00850558       0.66613839 </v>
   <v>       0.63032463      -0.00061722       0.69606654 </v>
   <v>      -0.00161194       0.29133875       0.06623503 </v>
   <v>       0.25859337       0.70484186       0.06458237 </v>
   <v>       0.25599985       0.30646710       0.30886997 </v>
   <v>       0.50441647       0.69475316       0.30978839 </v>
   <v>       0.50279904       0.31777603       0.06539916 </v>
   <v>       0.75857985       0.69413091       0.06650145 </v>
   <v>       0.75653937       0.30771803       0.31393006 </v>
   <v>      -0.00263886       0.68644010       0.31240151 </v>
   <v>      -0.00253997       0.28960873       0.56580634 </v>
   <v>       0.24942557       0.69254435       0.56680524 </v>
   <v>       0.25447369       0.31865038       0.81473345 </v>
   <v>       0.50257989       0.68552919       0.81081322 </v>
   <v>       0.50275419       0.31569180       0.56684671 </v>
   <v>       0.75602870       0.69161414       0.56630510 </v>
   <v>       0.75626354       0.30390349       0.81355676 </v>
   <v>      -0.00189104       0.69689384       0.81489707 </v>
   <v>       0.26026667       0.36591329       0.06842269 </v>
   <v>      -0.00136785       0.64218522       0.06741461 </v>
   <v>       0.50740561       0.33747265       0.31709144 </v>
   <v>       0.24657518       0.71599864       0.32061127 </v>
   <v>       0.75806739       0.34945548       0.06757953 </v>
   <v>       0.49675946       0.64318681       0.06735868 </v>
   <v>       0.00728706       0.33296169       0.31616698 </v>
   <v>       0.74635322       0.64343932       0.31758314 </v>
   <v>       0.25858869       0.33696286       0.56824520 </v>
   <v>       0.00118375       0.64539322       0.56852301 </v>
   <v>       0.50608954       0.36595722       0.81474635 </v>
   <v>       0.25087596       0.65952720       0.81734478 </v>
   <v>       0.75544054       0.35510248       0.56774224 </v>
   <v>       0.49803686       0.65793572       0.56847807 </v>
   <v>       0.00590476       0.33422021       0.81431405 </v>
   <v>       0.74663017       0.65383010       0.81399607 </v>
   <v>       0.47432137       0.10610365       0.05591897 </v>
   <v>       0.31044587       0.90880676       0.05526566 </v>
   <v>       0.28008886       0.09605806       0.29973531 </v>
   <v>      -0.04141991       0.89445911       0.31956156 </v>
   <v>       0.96279898       0.08653062       0.06973786 </v>
   <v>       0.78244939       0.90163444       0.06638630 </v>
   <v>       0.76652241       0.09043281       0.32334463 </v>
   <v>       0.50983274       0.90751522       0.29848991 </v>
   <v>       0.51103184       0.09703998       0.59047813 </v>
   <v>       0.24483440       0.91312038       0.58002817 </v>
   <v>       0.29264825       0.10339928       0.80428195 </v>
   <v>      -0.01655407       0.90752387       0.79718630 </v>
   <v>       0.98220485       0.07806151       0.57280941 </v>
   <v>       0.74486549       0.91062162       0.57607523 </v>
   <v>       0.75265559       0.08963811       0.79291255 </v>
   <v>       0.48944082       0.91422692       0.78868957 </v>
  </varray>
 </structure>
</modeling>
