<?xml version="1.0" encoding="ISO-8859-1"?>
<modeling>
 <generator>
  <i name="program" type="string">vasp </i>
  <i name="version" type="string">5.4.4.18Apr17-6-g9f103f2a35  </i>
  <i name="subversion" type="string">(build Jul 31 2017 11:33:29) complex            parallel </i>
  <i name="platform" type="string">LinuxIFC </i>
  <i name="date" type="string">2021 09 23 </i>
  <i name="time" type="string">10:42:51 </i>
 </generator>
 <incar>
  <i type="string" name="SYSTEM"> La2O2S</i>
  <i type="string" name="PREC">normal</i>
  <i type="int" name="NELMIN">     4</i>
  <i type="int" name="IBRION">     2</i>
  <i type="int" name="NFREE">    10</i>
  <i name="EDIFF">      0.00000100</i>
  <i name="EDIFFG">     -0.01000000</i>
  <i type="int" name="NSW">   200</i>
  <i type="int" name="ISIF">     3</i>
  <i name="ENCUT">    600.00000000</i>
  <i name="ENAUG">    900.00000000</i>
  <i type="int" name="ISMEAR">    -5</i>
  <i type="logical" name="LWAVE"> F  </i>
  <i type="logical" name="LCHARG"> F  </i>
  <v type="int" name="KPOINT_BSE">    -1     0     0     0</v>
 </incar>
 <structure name="primitive_cell" >
  <crystal>
   <varray name="basis" >
    <v>      11.17850000       0.00000000       0.00000000 </v>
    <v>       0.00000000       9.57460000       0.00000000 </v>
    <v>       0.00000000       0.00000000      11.18240000 </v>
   </varray>
   <i name="volume">   1196.84853820 </i>
   <varray name="rec_basis" >
    <v>       0.08945744       0.00000000       0.00000000 </v>
    <v>       0.00000000       0.10444301       0.00000000 </v>
    <v>       0.00000000       0.00000000       0.08942624 </v>
   </varray>
  </crystal>
  <varray name="positions" >
   <v>       0.37539000       0.00017000       0.43687000 </v>
   <v>      -0.49987000      -0.07798000       0.31246000 </v>
   <v>       0.25013000       0.07798000       0.31246000 </v>
   <v>       0.49987000       0.07798000      -0.43754000 </v>
   <v>       0.24987000      -0.07798000      -0.43754000 </v>
   <v>      -0.37461000      -0.00016000       0.43687000 </v>
   <v>       0.37461000       0.00017000       0.18687000 </v>
   <v>       0.37461000       0.00017000      -0.31313000 </v>
   <v>       0.49987000      -0.29519000       0.31282000 </v>
   <v>       0.24987000       0.29519000       0.31282000 </v>
   <v>      -0.49987000       0.29519000      -0.43719000 </v>
   <v>       0.25013000      -0.29519000      -0.43719000 </v>
   <v>       0.49995000       0.32677000       0.31286000 </v>
   <v>       0.24995000      -0.32677000       0.31286000 </v>
   <v>      -0.49995000      -0.32677000      -0.43714000 </v>
   <v>       0.25005000       0.32677000      -0.43714000 </v>
   <v>      -0.37539000      -0.00016000      -0.31313000 </v>
   <v>       0.12461000      -0.00016000      -0.31313000 </v>
   <v>       0.49987000       0.07798000       0.06246000 </v>
   <v>      -0.24987000       0.07798000       0.31246000 </v>
   <v>      -0.25013000      -0.07798000      -0.43754000 </v>
   <v>       0.24987000      -0.07798000       0.06246000 </v>
   <v>       0.00013000      -0.07798000       0.31246000 </v>
   <v>      -0.49987000      -0.07798000      -0.18754000 </v>
   <v>      -0.00013000       0.07798000      -0.43754000 </v>
   <v>       0.25013000       0.07798000      -0.18754000 </v>
   <v>      -0.49987000       0.29519000       0.06281000 </v>
   <v>      -0.25013000       0.29519000       0.31282000 </v>
   <v>       0.25013000      -0.29519000       0.06281000 </v>
   <v>      -0.24987000      -0.29519000      -0.43719000 </v>
   <v>      -0.00013000      -0.29519000       0.31282000 </v>
   <v>       0.00013000       0.29519000      -0.43719000 </v>
   <v>       0.49987000      -0.29519000      -0.18718000 </v>
   <v>       0.24987000       0.29519000      -0.18718000 </v>
   <v>      -0.49995000      -0.32677000       0.06286000 </v>
   <v>       0.25005000       0.32677000       0.06286000 </v>
   <v>      -0.25005000      -0.32677000       0.31286000 </v>
   <v>      -0.24995000       0.32677000      -0.43714000 </v>
   <v>      -0.00005000       0.32677000       0.31286000 </v>
   <v>       0.00005000      -0.32677000      -0.43714000 </v>
   <v>       0.49995000       0.32677000      -0.18714000 </v>
   <v>       0.24995000      -0.32677000      -0.18714000 </v>
   <v>      -0.12461000       0.00017000       0.43687000 </v>
   <v>       0.37539000       0.00017000      -0.06313000 </v>
   <v>      -0.25013000      -0.07798000       0.06246000 </v>
   <v>      -0.00013000       0.07798000       0.06246000 </v>
   <v>      -0.24987000       0.07798000      -0.18754000 </v>
   <v>       0.00013000      -0.07798000      -0.18754000 </v>
   <v>      -0.12539000       0.00017000       0.18687000 </v>
   <v>      -0.12539000       0.00017000      -0.31313000 </v>
   <v>       0.12539000      -0.00016000      -0.06313000 </v>
   <v>      -0.24987000      -0.29519000       0.06281000 </v>
   <v>       0.00013000       0.29519000       0.06281000 </v>
   <v>      -0.25013000       0.29519000      -0.18718000 </v>
   <v>      -0.00013000      -0.29519000      -0.18718000 </v>
   <v>      -0.24995000       0.32677000       0.06286000 </v>
   <v>       0.00005000      -0.32677000       0.06286000 </v>
   <v>      -0.25005000      -0.32677000      -0.18714000 </v>
   <v>      -0.00005000       0.32677000      -0.18714000 </v>
   <v>      -0.12461000       0.00017000      -0.06313000 </v>
  </varray>
 </structure>
 <varray name="primitive_index" >
  <v type="int" >        1 </v>
  <v type="int" >       52 </v>
  <v type="int" >       47 </v>
  <v type="int" >       53 </v>
  <v type="int" >       54 </v>
  <v type="int" >        2 </v>
  <v type="int" >        9 </v>
  <v type="int" >       10 </v>
  <v type="int" >       16 </v>
  <v type="int" >       15 </v>
  <v type="int" >       25 </v>
  <v type="int" >       22 </v>
  <v type="int" >       31 </v>
  <v type="int" >       32 </v>
  <v type="int" >       42 </v>
  <v type="int" >       37 </v>
  <v type="int" >        8 </v>
  <v type="int" >        7 </v>
  <v type="int" >       45 </v>
  <v type="int" >       51 </v>
  <v type="int" >       58 </v>
  <v type="int" >       46 </v>
  <v type="int" >       48 </v>
  <v type="int" >       60 </v>
  <v type="int" >       57 </v>
  <v type="int" >       55 </v>
  <v type="int" >       17 </v>
  <v type="int" >       19 </v>
  <v type="int" >       14 </v>
  <v type="int" >       26 </v>
  <v type="int" >       20 </v>
  <v type="int" >       21 </v>
  <v type="int" >       24 </v>
  <v type="int" >       23 </v>
  <v type="int" >       34 </v>
  <v type="int" >       29 </v>
  <v type="int" >       36 </v>
  <v type="int" >       41 </v>
  <v type="int" >       35 </v>
  <v type="int" >       38 </v>
  <v type="int" >       39 </v>
  <v type="int" >       40 </v>
  <v type="int" >        3 </v>
  <v type="int" >        6 </v>
  <v type="int" >       50 </v>
  <v type="int" >       49 </v>
  <v type="int" >       59 </v>
  <v type="int" >       56 </v>
  <v type="int" >        4 </v>
  <v type="int" >       12 </v>
  <v type="int" >        5 </v>
  <v type="int" >       18 </v>
  <v type="int" >       13 </v>
  <v type="int" >       27 </v>
  <v type="int" >       28 </v>
  <v type="int" >       33 </v>
  <v type="int" >       30 </v>
  <v type="int" >       44 </v>
  <v type="int" >       43 </v>
  <v type="int" >       11 </v>
 </varray>
 <kpoints>
  <generation param="Gamma">
   <v type="int" name="divisions">       2        2        2 </v>
   <v name="usershift">      0.00000000       0.00000000       0.00000000 </v>
   <v name="genvec1">      0.50000000       0.00000000       0.00000000 </v>
   <v name="genvec2">      0.00000000       0.50000000       0.00000000 </v>
   <v name="genvec3">      0.00000000       0.00000000       0.50000000 </v>
   <v name="shift">      0.00000000       0.00000000       0.00000000 </v>
  </generation>
  <varray name="kpointlist" >
   <v>       0.00000000       0.00000000       0.00000000 </v>
   <v>       0.50000000       0.00000000       0.00000000 </v>
   <v>       0.00000000       0.50000000       0.00000000 </v>
   <v>       0.50000000       0.50000000       0.00000000 </v>
   <v>       0.00000000       0.00000000       0.50000000 </v>
   <v>       0.50000000       0.00000000       0.50000000 </v>
   <v>       0.00000000       0.50000000       0.50000000 </v>
   <v>       0.50000000       0.50000000       0.50000000 </v>
  </varray>
  <varray name="weights" >
   <v>       0.12500000 </v>
   <v>       0.12500000 </v>
   <v>       0.12500000 </v>
   <v>       0.12500000 </v>
   <v>       0.12500000 </v>
   <v>       0.12500000 </v>
   <v>       0.12500000 </v>
   <v>       0.12500000 </v>
  </varray>
  <varray name="tetrahedronlist"  type="int" >
   <v type="int" >        2        1        2        4        5 </v>
   <v type="int" >        2        1        3        4        5 </v>
   <v type="int" >        2        3        4        5        7 </v>
   <v type="int" >        2        2        4        5        6 </v>
   <v type="int" >        2        4        5        6        8 </v>
   <v type="int" >        2        4        5        7        8 </v>
   <v type="int" >        2        1        2        3        6 </v>
   <v type="int" >        2        2        3        4        6 </v>
   <v type="int" >        2        3        4        6        8 </v>
   <v type="int" >        2        1        3        5        6 </v>
   <v type="int" >        2        3        5        6        7 </v>
   <v type="int" >        2        3        6        7        8 </v>
   <v type="int" >        2        2        3        4        7 </v>
   <v type="int" >        2        1        2        3        7 </v>
   <v type="int" >        2        1        2        5        7 </v>
   <v type="int" >        2        2        4        7        8 </v>
   <v type="int" >        2        2        6        7        8 </v>
   <v type="int" >        2        2        5        6        7 </v>
   <v type="int" >        2        1        3        4        8 </v>
   <v type="int" >        2        1        2        4        8 </v>
   <v type="int" >        2        1        2        6        8 </v>
   <v type="int" >        2        1        3        7        8 </v>
   <v type="int" >        2        1        5        7        8 </v>
   <v type="int" >        2        1        5        6        8 </v>
  </varray>
  <i name="volumeweight">      0.02083333 </i>
 </kpoints>
 <parameters>
  <separator name="general" >
   <i type="string" name="SYSTEM">La2O2S</i>
   <i type="logical" name="LCOMPAT"> F  </i>
  </separator>
  <separator name="electronic" >
   <i type="string" name="PREC">normal</i>
   <i name="ENMAX">    600.00000000</i>
   <i name="ENAUG">    900.00000000</i>
   <i name="EDIFF">      0.00000100</i>
   <i type="int" name="IALGO">    38</i>
   <i type="int" name="IWAVPR">    11</i>
   <i type="int" name="NBANDS">   280</i>
   <i name="NELECT">    464.00000000</i>
   <i type="int" name="TURBO">     0</i>
   <i type="int" name="IRESTART">     0</i>
   <i type="int" name="NREBOOT">     0</i>
   <i type="int" name="NMIN">     0</i>
   <i name="EREF">      0.00000000</i>
   <separator name="electronic smearing" >
    <i type="int" name="ISMEAR">    -5</i>
    <i name="SIGMA">      0.20000000</i>
    <i name="KSPACING">      0.50000000</i>
    <i type="logical" name="KGAMMA"> T  </i>
   </separator>
   <separator name="electronic projectors" >
    <i type="logical" name="LREAL"> F  </i>
    <v name="ROPT">      0.00000000      0.00000000      0.00000000      0.00000000      0.00000000</v>
    <i type="int" name="LMAXPAW">  -100</i>
    <i type="int" name="LMAXMIX">     2</i>
    <i type="logical" name="NLSPLINE"> F  </i>
   </separator>
   <separator name="electronic startup" >
    <i type="int" name="ISTART">     0</i>
    <i type="int" name="ICHARG">     2</i>
    <i type="int" name="INIWAV">     1</i>
   </separator>
   <separator name="electronic spin" >
    <i type="int" name="ISPIN">     1</i>
    <i type="logical" name="LNONCOLLINEAR"> F  </i>
    <v name="MAGMOM">      1.00000000      1.00000000      1.00000000      1.00000000      1.00000000      1.00000000      1.00000000      1.00000000      1.00000000      1.00000000      1.00000000      1.00000000      1.00000000      1.00000000      1.00000000      1.00000000      1.00000000      1.00000000      1.00000000      1.00000000
      1.00000000      1.00000000      1.00000000      1.00000000      1.00000000      1.00000000      1.00000000      1.00000000      1.00000000      1.00000000      1.00000000      1.00000000      1.00000000      1.00000000      1.00000000      1.00000000      1.00000000      1.00000000      1.00000000      1.00000000
      1.00000000      1.00000000      1.00000000      1.00000000      1.00000000      1.00000000      1.00000000      1.00000000      1.00000000      1.00000000      1.00000000      1.00000000      1.00000000      1.00000000      1.00000000      1.00000000      1.00000000      1.00000000      1.00000000      1.00000000
</v>
    <i name="NUPDOWN">     -1.00000000</i>
    <i type="logical" name="LSORBIT"> F  </i>
    <v name="SAXIS">      0.00000000      0.00000000      1.00000000</v>
    <i type="logical" name="LSPIRAL"> F  </i>
    <v name="QSPIRAL">      0.00000000      0.00000000      0.00000000</v>
    <i type="logical" name="LZEROZ"> F  </i>
   </separator>
   <separator name="electronic exchange-correlation" >
    <i type="logical" name="LASPH"> F  </i>
    <i type="logical" name="LMETAGGA"> F  </i>
   </separator>
   <separator name="electronic convergence" >
    <i type="int" name="NELM">    60</i>
    <i type="int" name="NELMDL">    -5</i>
    <i type="int" name="NELMIN">     4</i>
    <i name="ENINI">    600.00000000</i>
    <separator name="electronic convergence detail" >
     <i type="logical" name="LDIAG"> T  </i>
     <i type="logical" name="LSUBROT"> F  </i>
     <i name="WEIMIN">      0.00100000</i>
     <i name="EBREAK">      0.00000000</i>
     <i name="DEPER">      0.30000000</i>
     <i type="int" name="NRMM">     4</i>
     <i name="TIME">      0.40000000</i>
    </separator>
   </separator>
   <separator name="electronic mixer" >
    <i name="AMIX">      0.40000000</i>
    <i name="BMIX">      1.00000000</i>
    <i name="AMIN">      0.10000000</i>
    <i name="AMIX_MAG">      1.60000000</i>
    <i name="BMIX_MAG">      1.00000000</i>
    <separator name="electronic mixer details" >
     <i type="int" name="IMIX">     4</i>
     <i type="logical" name="MIXFIRST"> F  </i>
     <i type="int" name="MAXMIX">   -45</i>
     <i name="WC">    100.00000000</i>
     <i type="int" name="INIMIX">     1</i>
     <i type="int" name="MIXPRE">     1</i>
     <i type="int" name="MREMOVE">     5</i>
    </separator>
   </separator>
   <separator name="electronic dipolcorrection" >
    <i type="logical" name="LDIPOL"> F  </i>
    <i type="logical" name="LMONO"> F  </i>
    <i type="int" name="IDIPOL">     0</i>
    <i name="EPSILON">      1.00000000</i>
    <v name="DIPOL">   -100.00000000   -100.00000000   -100.00000000</v>
    <i name="EFIELD">      0.00000000</i>
   </separator>
  </separator>
  <separator name="grids" >
   <i type="int" name="NGX">    70</i>
   <i type="int" name="NGY">    60</i>
   <i type="int" name="NGZ">    70</i>
   <i type="int" name="NGXF">   140</i>
   <i type="int" name="NGYF">   120</i>
   <i type="int" name="NGZF">   140</i>
   <i type="logical" name="ADDGRID"> F  </i>
  </separator>
  <separator name="ionic" >
   <i type="int" name="NSW">   200</i>
   <i type="int" name="IBRION">     2</i>
   <i type="int" name="MDALGO">     0</i>
   <i type="int" name="ISIF">     3</i>
   <i name="PSTRESS">      0.00000000</i>
   <i name="EDIFFG">     -0.01000000</i>
   <i type="int" name="NFREE">    10</i>
   <i name="POTIM">      0.50000000</i>
   <i name="SMASS">     -3.00000000</i>
   <i name="SCALEE">      1.00000000</i>
  </separator>
  <separator name="ionic md" >
   <i name="TEBEG">      0.00010000</i>
   <i name="TEEND">      0.00010000</i>
   <i type="int" name="NBLOCK">     1</i>
   <i type="int" name="KBLOCK">   200</i>
   <i type="int" name="NPACO">   256</i>
   <i name="APACO">     16.00000000</i>
  </separator>
  <separator name="symmetry" >
   <i type="int" name="ISYM">     2</i>
   <i name="SYMPREC">      0.00001000</i>
  </separator>
  <separator name="dos" >
   <i type="int" name="LORBIT">     0</i>
   <v name="RWIGS">     -1.00000000     -1.00000000     -1.00000000     -1.00000000     -1.00000000</v>
   <i type="int" name="NEDOS">   301</i>
   <i name="EMIN">     10.00000000</i>
   <i name="EMAX">    -10.00000000</i>
   <i name="EFERMI">      0.00000000</i>
  </separator>
  <separator name="writing" >
   <i type="int" name="NWRITE">     2</i>
   <i type="logical" name="LWAVE"> F  </i>
   <i type="logical" name="LDOWNSAMPLE"> F  </i>
   <i type="logical" name="LCHARG"> F  </i>
   <i type="logical" name="LPARD"> F  </i>
   <i type="logical" name="LVTOT"> F  </i>
   <i type="logical" name="LVHAR"> F  </i>
   <i type="logical" name="LELF"> F  </i>
   <i type="logical" name="LOPTICS"> F  </i>
   <v name="STM">      0.00000000      0.00000000      0.00000000      0.00000000      0.00000000      0.00000000      0.00000000</v>
  </separator>
  <separator name="performance" >
   <i type="int" name="NPAR">    28</i>
   <i type="int" name="NSIM">     4</i>
   <i type="int" name="NBLK">    -1</i>
   <i type="logical" name="LPLANE"> T  </i>
   <i type="logical" name="LSCALAPACK"> T  </i>
   <i type="logical" name="LSCAAWARE"> F  </i>
   <i type="logical" name="LSCALU"> F  </i>
   <i type="logical" name="LASYNC"> F  </i>
   <i type="logical" name="LORBITALREAL"> F  </i>
  </separator>
  <separator name="miscellaneous" >
   <i type="int" name="IDIOT">     3</i>
   <i type="int" name="ISPECIAL">     0</i>
   <i type="logical" name="LMUSIC"> F  </i>
   <v name="POMASS">      7.01000000     24.30500000    208.98000000     32.06600000     16.00000000</v>
   <v name="DARWINR">      0.00000000      0.00000000      0.00000000      0.00000000      0.00000000</v>
   <v name="DARWINV">      1.00000000      1.00000000      1.00000000      1.00000000      1.00000000</v>
   <i type="logical" name="LCORR"> T  </i>
  </separator>
  <i type="logical" name="GGA_COMPAT"> T  </i>
  <i type="logical" name="LBERRY"> F  </i>
  <i type="int" name="ICORELEVEL">     0</i>
  <i type="logical" name="LDAU"> F  </i>
  <i type="int" name="I_CONSTRAINED_M">     0</i>
  <separator name="electronic exchange-correlation" >
   <i type="string" name="GGA">--</i>
   <i type="int" name="VOSKOWN">     0</i>
   <i type="logical" name="LHFCALC"> F  </i>
   <i type="string" name="PRECFOCK"></i>
   <i type="logical" name="LSYMGRAD"> F  </i>
   <i type="logical" name="LHFONE"> F  </i>
   <i type="logical" name="LRHFCALC"> F  </i>
   <i type="logical" name="LTHOMAS"> F  </i>
   <i type="logical" name="LMODELHF"> F  </i>
   <i name="ENCUT4O">     -1.00000000</i>
   <i type="int" name="EXXOEP">     0</i>
   <i type="int" name="FOURORBIT">     0</i>
   <i name="AEXX">      0.00000000</i>
   <i name="HFALPHA">      0.00000000</i>
   <i name="MCALPHA">      0.00000000</i>
   <i name="ALDAX">      1.00000000</i>
   <i name="AGGAX">      1.00000000</i>
   <i name="ALDAC">      1.00000000</i>
   <i name="AGGAC">      1.00000000</i>
   <i type="int" name="NKREDX">     1</i>
   <i type="int" name="NKREDY">     1</i>
   <i type="int" name="NKREDZ">     1</i>
   <i type="logical" name="SHIFTRED"> F  </i>
   <i type="logical" name="ODDONLY"> F  </i>
   <i type="logical" name="EVENONLY"> F  </i>
   <i type="int" name="LMAXFOCK">     0</i>
   <i type="int" name="NMAXFOCKAE">     0</i>
   <i type="logical" name="LFOCKAEDFT"> F  </i>
   <i name="HFSCREEN">      0.00000000</i>
   <i name="HFSCREENC">      0.00000000</i>
   <i type="int" name="NBANDSGWLOW">     0</i>
  </separator>
  <separator name="vdW DFT" >
   <i type="logical" name="LUSE_VDW"> F  </i>
   <i name="Zab_VDW">     -0.84910000</i>
   <i name="PARAM1">      0.12340000</i>
   <i name="PARAM2">      1.00000000</i>
   <i name="PARAM3">      0.00000000</i>
  </separator>
  <separator name="model GW" >
   <i type="int" name="MODEL_GW">     0</i>
   <i name="MODEL_EPS0">     11.96848538</i>
   <i name="MODEL_ALPHA">      1.00000000</i>
  </separator>
  <separator name="linear response parameters" >
   <i type="logical" name="LEPSILON"> F  </i>
   <i type="logical" name="LRPA"> F  </i>
   <i type="logical" name="LNABLA"> F  </i>
   <i type="logical" name="LVEL"> F  </i>
   <i type="int" name="KINTER">     0</i>
   <i name="CSHIFT">      0.10000000</i>
   <i name="OMEGAMAX">     -1.00000000</i>
   <i name="DEG_THRESHOLD">      0.00200000</i>
   <i name="RTIME">     -0.10000000</i>
   <i name="WPLASMAI">      0.00000000</i>
   <v name="DFIELD">      0.00000000      0.00000000      0.00000000</v>
   <v name="WPLASMA">      0.00000000      0.00000000      0.00000000      0.00000000      0.00000000      0.00000000      0.00000000      0.00000000      0.00000000</v>
  </separator>
  <separator name="orbital magnetization" >
   <i type="logical" name="NUCIND"> F  </i>
   <v name="MAGPOS">      0.00000000      0.00000000      0.00000000</v>
   <i type="logical" name="LNICSALL"> T  </i>
   <i type="logical" name="ORBITALMAG"> F  </i>
   <i type="logical" name="LMAGBLOCH"> F  </i>
   <i type="logical" name="LCHIMAG"> F  </i>
   <i type="logical" name="LGAUGE"> T  </i>
   <i type="int" name="MAGATOM">     0</i>
   <v name="MAGDIPOL">      0.00000000      0.00000000      0.00000000</v>
   <v name="AVECCONST">      0.00000000      0.00000000      0.00000000</v>
  </separator>
  <separator name="response functions" >
   <i type="logical" name="LADDER"> F  </i>
   <i type="logical" name="LRPAFORCE"> F  </i>
   <i type="logical" name="LFXC"> F  </i>
   <i type="logical" name="LHARTREE"> T  </i>
   <i type="int" name="IBSE">     0</i>
   <v type="int" name="KPOINT">    -1     0     0     0</v>
   <i type="logical" name="LTCTE"> F  </i>
   <i type="logical" name="LTETE"> F  </i>
   <i type="logical" name="LTRIPLET"> F  </i>
   <i type="logical" name="LFXCEPS"> F  </i>
   <i type="logical" name="LFXHEG"> F  </i>
   <i type="int" name="NATURALO">     2</i>
   <i type="logical" name="L2ORDER"> F  </i>
   <i type="logical" name="LMP2LT"> F  </i>
   <i type="logical" name="LUSEW"> F  </i>
   <i name="ENCUTGW">     -2.00000000</i>
   <i name="ENCUTGWSOFT">     -2.00000000</i>
   <i name="ENCUTLF">     -1.00000000</i>
   <i type="int" name="LMAXMP2">    -1</i>
   <i name="SCISSOR">      0.00000000</i>
   <i type="int" name="NOMEGA">     0</i>
   <i type="int" name="NOMEGAR">     0</i>
   <i type="int" name="NBANDSGW">    -1</i>
   <i type="int" name="NBANDSO">    -1</i>
   <i type="int" name="NBANDSV">    -1</i>
   <i type="int" name="NELM">     1</i>
   <i type="int" name="NELMHF">     1</i>
   <i type="int" name="DIM">     3</i>
   <i type="int" name="ANTIRES">     0</i>
   <i name="OMEGAMAX">    -30.00000000</i>
   <i name="OMEGAMIN">    -30.00000000</i>
   <i name="OMEGATL">   -200.00000000</i>
   <i type="int" name="OMEGAGRID">   140</i>
   <i name="CSHIFT">     -0.10000000</i>
   <i type="logical" name="SELFENERGY"> F  </i>
   <i type="logical" name="LSPECTRAL"> F  </i>
   <i type="logical" name="LSPECTRALGW"> F  </i>
   <i type="logical" name="LSINGLES"> F  </i>
   <i type="logical" name="LFERMIGW"> F  </i>
   <i type="logical" name="ODDONLYGW"> F  </i>
   <i type="logical" name="EVENONLYGW"> F  </i>
   <i type="int" name="NKREDLFX">     1</i>
   <i type="int" name="NKREDLFY">     1</i>
   <i type="int" name="NKREDLFZ">     1</i>
   <i type="int" name="MAXMEM">  2800</i>
   <i type="int" name="TELESCOPE">     0</i>
   <i type="int" name="TAUPAR">     1</i>
   <i type="int" name="OMEGAPAR">    -1</i>
   <i name="LAMBDA">      1.00000000</i>
  </separator>
  <separator name="External order field" >
   <i name="OFIELD_KAPPA">      0.00000000</i>
   <v name="OFIELD_K">      0.00000000      0.00000000      0.00000000</v>
   <i name="OFIELD_Q6_NEAR">      0.00000000</i>
   <i name="OFIELD_Q6_FAR">      0.00000000</i>
   <i name="OFIELD_A">      0.00000000</i>
  </separator>
 </parameters>
 <atominfo>
  <atoms>      60 </atoms>
  <types>       5 </types>
  <array name="atoms" >
   <dimension dim="1">ion</dimension>
   <field type="string">element</field>
   <field type="int">atomtype</field>
   <set>
    <rc><c>Li</c><c>   1</c></rc>
    <rc><c>Li</c><c>   1</c></rc>
    <rc><c>Li</c><c>   1</c></rc>
    <rc><c>Li</c><c>   1</c></rc>
    <rc><c>Li</c><c>   1</c></rc>
    <rc><c>Li</c><c>   1</c></rc>
    <rc><c>Li</c><c>   1</c></rc>
    <rc><c>Li</c><c>   1</c></rc>
    <rc><c>Mg</c><c>   2</c></rc>
    <rc><c>Mg</c><c>   2</c></rc>
    <rc><c>Mg</c><c>   2</c></rc>
    <rc><c>Mg</c><c>   2</c></rc>
    <rc><c>Bi</c><c>   3</c></rc>
    <rc><c>Bi</c><c>   3</c></rc>
    <rc><c>Bi</c><c>   3</c></rc>
    <rc><c>Bi</c><c>   3</c></rc>
    <rc><c>Bi</c><c>   3</c></rc>
    <rc><c>Bi</c><c>   3</c></rc>
    <rc><c>Bi</c><c>   3</c></rc>
    <rc><c>Bi</c><c>   3</c></rc>
    <rc><c>Bi</c><c>   3</c></rc>
    <rc><c>Bi</c><c>   3</c></rc>
    <rc><c>Bi</c><c>   3</c></rc>
    <rc><c>Bi</c><c>   3</c></rc>
    <rc><c>Bi</c><c>   3</c></rc>
    <rc><c>Bi</c><c>   3</c></rc>
    <rc><c>Bi</c><c>   3</c></rc>
    <rc><c>Bi</c><c>   3</c></rc>
    <rc><c>S </c><c>   4</c></rc>
    <rc><c>S </c><c>   4</c></rc>
    <rc><c>S </c><c>   4</c></rc>
    <rc><c>S </c><c>   4</c></rc>
    <rc><c>S </c><c>   4</c></rc>
    <rc><c>S </c><c>   4</c></rc>
    <rc><c>S </c><c>   4</c></rc>
    <rc><c>S </c><c>   4</c></rc>
    <rc><c>S </c><c>   4</c></rc>
    <rc><c>S </c><c>   4</c></rc>
    <rc><c>S </c><c>   4</c></rc>
    <rc><c>S </c><c>   4</c></rc>
    <rc><c>S </c><c>   4</c></rc>
    <rc><c>S </c><c>   4</c></rc>
    <rc><c>S </c><c>   4</c></rc>
    <rc><c>S </c><c>   4</c></rc>
    <rc><c>O </c><c>   5</c></rc>
    <rc><c>O </c><c>   5</c></rc>
    <rc><c>O </c><c>   5</c></rc>
    <rc><c>O </c><c>   5</c></rc>
    <rc><c>O </c><c>   5</c></rc>
    <rc><c>O </c><c>   5</c></rc>
    <rc><c>O </c><c>   5</c></rc>
    <rc><c>O </c><c>   5</c></rc>
    <rc><c>O </c><c>   5</c></rc>
    <rc><c>O </c><c>   5</c></rc>
    <rc><c>O </c><c>   5</c></rc>
    <rc><c>O </c><c>   5</c></rc>
    <rc><c>O </c><c>   5</c></rc>
    <rc><c>O </c><c>   5</c></rc>
    <rc><c>O </c><c>   5</c></rc>
    <rc><c>O </c><c>   5</c></rc>
   </set>
  </array>
  <array name="atomtypes" >
   <dimension dim="1">type</dimension>
   <field type="int">atomspertype</field>
   <field type="string">element</field>
   <field>mass</field>
   <field>valence</field>
   <field type="string">pseudopotential</field>
   <set>
    <rc><c>   8</c><c>Li</c><c>      7.01000000</c><c>      3.00000000</c><c>  PAW_PBE Li_sv 10Sep2004               </c></rc>
    <rc><c>   4</c><c>Mg</c><c>     24.30500000</c><c>      2.00000000</c><c>  PAW_PBE Mg 13Apr2007                  </c></rc>
    <rc><c>  16</c><c>Bi</c><c>    208.98000000</c><c>     15.00000000</c><c>  PAW_PBE Bi_d 06Sep2000                </c></rc>
    <rc><c>  16</c><c>S </c><c>     32.06600000</c><c>      6.00000000</c><c>  PAW_PBE S 06Sep2000                   </c></rc>
    <rc><c>  16</c><c>O </c><c>     16.00000000</c><c>      6.00000000</c><c>  PAW_PBE O 08Apr2002                   </c></rc>
   </set>
  </array>
 </atominfo>
 <structure name="initialpos" >
  <crystal>
   <varray name="basis" >
    <v>      11.17850000       0.00000000       0.00000000 </v>
    <v>       0.00000000       9.57460000       0.00000000 </v>
    <v>       0.00000000       0.00000000      11.18240000 </v>
   </varray>
   <i name="volume">   1196.84853820 </i>
   <varray name="rec_basis" >
    <v>       0.08945744       0.00000000       0.00000000 </v>
    <v>       0.00000000       0.10444301       0.00000000 </v>
    <v>       0.00000000       0.00000000       0.08942624 </v>
   </varray>
  </crystal>
  <varray name="positions" >
   <v>       0.37539000       0.00017000       0.43687000 </v>
   <v>       0.62539000       0.99984000       0.43687000 </v>
   <v>       0.87539000       0.00017000       0.43687000 </v>
   <v>       0.87461000       0.00017000       0.18687000 </v>
   <v>       0.12539000       0.99984000       0.93687000 </v>
   <v>       0.37539000       0.00017000       0.93687000 </v>
   <v>       0.12461000       0.99984000       0.68687000 </v>
   <v>       0.62461000       0.99984000       0.68687000 </v>
   <v>       0.37461000       0.00017000       0.18687000 </v>
   <v>       0.37461000       0.00017000       0.68687000 </v>
   <v>       0.87539000       0.00017000       0.93687000 </v>
   <v>       0.87461000       0.00017000       0.68687000 </v>
   <v>       0.00013000       0.29519000       0.06281000 </v>
   <v>       0.25013000       0.70481000       0.06281000 </v>
   <v>       0.24987000       0.29519000       0.31282000 </v>
   <v>       0.49987000       0.70481000       0.31282000 </v>
   <v>       0.50013000       0.29519000       0.06281000 </v>
   <v>       0.75013000       0.70481000       0.06281000 </v>
   <v>       0.74987000       0.29519000       0.31282000 </v>
   <v>       0.99987000       0.70481000       0.31282000 </v>
   <v>       0.00013000       0.29519000       0.56281000 </v>
   <v>       0.25013000       0.70481000       0.56281000 </v>
   <v>       0.24987000       0.29519000       0.81282000 </v>
   <v>       0.49987000       0.70481000       0.81282000 </v>
   <v>       0.50013000       0.29519000       0.56281000 </v>
   <v>       0.75013000       0.70481000       0.56281000 </v>
   <v>       0.74987000       0.29519000       0.81282000 </v>
   <v>       0.99987000       0.70481000       0.81282000 </v>
   <v>       0.25005000       0.32677000       0.06286000 </v>
   <v>       0.00005000       0.67323000       0.06286000 </v>
   <v>       0.49995000       0.32677000       0.31286000 </v>
   <v>       0.24995000       0.67323000       0.31286000 </v>
   <v>       0.75005000       0.32677000       0.06286000 </v>
   <v>       0.50005000       0.67323000       0.06286000 </v>
   <v>       0.99995000       0.32677000       0.31286000 </v>
   <v>       0.74995000       0.67323000       0.31286000 </v>
   <v>       0.25005000       0.32677000       0.56286000 </v>
   <v>       0.00005000       0.67323000       0.56286000 </v>
   <v>       0.49995000       0.32677000       0.81286000 </v>
   <v>       0.24995000       0.67323000       0.81286000 </v>
   <v>       0.75005000       0.32677000       0.56286000 </v>
   <v>       0.50005000       0.67323000       0.56286000 </v>
   <v>       0.99995000       0.32677000       0.81286000 </v>
   <v>       0.74995000       0.67323000       0.81286000 </v>
   <v>       0.49987000       0.07798000       0.06246000 </v>
   <v>       0.24987000       0.92202000       0.06246000 </v>
   <v>       0.25013000       0.07798000       0.31246000 </v>
   <v>       0.00013000       0.92202000       0.31246000 </v>
   <v>       0.99987000       0.07798000       0.06246000 </v>
   <v>       0.74987000       0.92202000       0.06246000 </v>
   <v>       0.75013000       0.07798000       0.31246000 </v>
   <v>       0.50013000       0.92202000       0.31246000 </v>
   <v>       0.49987000       0.07798000       0.56246000 </v>
   <v>       0.24987000       0.92202000       0.56246000 </v>
   <v>       0.25013000       0.07798000       0.81246000 </v>
   <v>       0.00013000       0.92202000       0.81246000 </v>
   <v>       0.99987000       0.07798000       0.56246000 </v>
   <v>       0.74987000       0.92202000       0.56246000 </v>
   <v>       0.75013000       0.07798000       0.81246000 </v>
   <v>       0.50013000       0.92202000       0.81246000 </v>
  </varray>
 </structure>
 <calculation>
  <scstep>
   <time name="dav">   60.68   61.19</time>
   <time name="total">   60.82   61.64</time>
   <energy>
    <i name="alphaZ">   1067.11773629 </i>
    <i name="ewald"> -30648.62540211 </i>
    <i name="hartreedc"> -12703.85411164 </i>
    <i name="XCdc">   1321.18051219 </i>
    <i name="pawpsdc">  36729.48549953 </i>
    <i name="pawaedc"> -36149.63912807 </i>
    <i name="eentropy">      0.00000000 </i>
    <i name="bandstr">   1839.79327647 </i>
    <i name="atom">  44408.54722957 </i>
    <i name="e_fr_energy">   5864.00561223 </i>
    <i name="e_wo_entrp">   5864.00561223 </i>
    <i name="e_0_energy">   5864.00561223 </i>
   </energy>
  </scstep>
  <scstep>
   <time name="dav">   61.69   61.72</time>
   <time name="total">   61.70   61.73</time>
   <energy>
    <i name="e_fr_energy">    775.13945859 </i>
    <i name="e_wo_entrp">    775.13945859 </i>
    <i name="e_0_energy">    775.13945859 </i>
   </energy>
  </scstep>
  <scstep>
   <time name="dav">   70.65   70.71</time>
   <time name="total">   70.65   70.71</time>
   <energy>
    <i name="e_fr_energy">   -242.77242808 </i>
    <i name="e_wo_entrp">   -242.77242808 </i>
    <i name="e_0_energy">   -242.77242808 </i>
   </energy>
  </scstep>
  <scstep>
   <time name="dav">   73.74   73.82</time>
   <time name="total">   73.74   73.82</time>
   <energy>
    <i name="e_fr_energy">   -339.47874882 </i>
    <i name="e_wo_entrp">   -339.47874882 </i>
    <i name="e_0_energy">   -339.47874882 </i>
   </energy>
  </scstep>
  <scstep>
   <time name="dav">   98.05   98.14</time>
   <time name="total">   98.77   98.86</time>
   <energy>
    <i name="e_fr_energy">   -347.50883933 </i>
    <i name="e_wo_entrp">   -347.50883933 </i>
    <i name="e_0_energy">   -347.50883933 </i>
   </energy>
  </scstep>
  <scstep>
   <time name="dav">   86.65   86.72</time>
   <time name="total">   87.44   88.06</time>
   <energy>
    <i name="e_fr_energy">   -290.84785641 </i>
    <i name="e_wo_entrp">   -290.84785641 </i>
    <i name="e_0_energy">   -290.84785641 </i>
   </energy>
  </scstep>
  <scstep>
   <time name="dav">   65.91   66.21</time>
   <time name="total">   66.82   67.26</time>
   <energy>
    <i name="e_fr_energy">   -293.23793882 </i>
    <i name="e_wo_entrp">   -293.23793882 </i>
    <i name="e_0_energy">   -293.23793882 </i>
   </energy>
  </scstep>
  <scstep>
   <time name="dav">   80.61   80.91</time>
   <time name="total">   81.42   81.77</time>
   <energy>
    <i name="e_fr_energy">   -292.08923853 </i>
    <i name="e_wo_entrp">   -292.08923853 </i>
    <i name="e_0_energy">   -292.08923853 </i>
   </energy>
  </scstep>
  <scstep>
   <time name="dav">   69.60   69.88</time>
   <time name="total">   70.40   70.69</time>
   <energy>
    <i name="e_fr_energy">   -291.51774843 </i>
    <i name="e_wo_entrp">   -291.51774843 </i>
    <i name="e_0_energy">   -291.51774843 </i>
   </energy>
  </scstep>
  <scstep>
   <time name="dav">   74.04   74.49</time>
   <time name="total">   74.82   75.28</time>
   <energy>
    <i name="e_fr_energy">   -291.55986900 </i>
    <i name="e_wo_entrp">   -291.55986900 </i>
    <i name="e_0_energy">   -291.55986900 </i>
   </energy>
  </scstep>
  <scstep>
   <time name="dav">   81.65   82.44</time>
   <time name="total">   82.44   83.23</time>
   <energy>
    <i name="e_fr_energy">   -291.56281683 </i>
    <i name="e_wo_entrp">   -291.56281683 </i>
    <i name="e_0_energy">   -291.56281683 </i>
   </energy>
  </scstep>
  <scstep>
   <time name="dav">   77.70   78.04</time>
   <time name="total">   78.49   78.83</time>
   <energy>
    <i name="e_fr_energy">   -291.56640223 </i>
    <i name="e_wo_entrp">   -291.56640223 </i>
    <i name="e_0_energy">   -291.56640223 </i>
   </energy>
  </scstep>
  <scstep>
   <time name="dav">   77.45   78.74</time>
   <time name="total">   78.20   79.57</time>
   <energy>
    <i name="e_fr_energy">   -291.56794175 </i>
    <i name="e_wo_entrp">   -291.56794175 </i>
    <i name="e_0_energy">   -291.56794175 </i>
   </energy>
  </scstep>
  <scstep>
   <time name="dav">   77.85   79.03</time>
   <time name="total">   78.64   79.82</time>
   <energy>
    <i name="e_fr_energy">   -291.56796975 </i>
    <i name="e_wo_entrp">   -291.56796975 </i>
    <i name="e_0_energy">   -291.56796975 </i>
   </energy>
  </scstep>
  <scstep>
   <time name="dav">   72.20   72.30</time>
   <time name="total">   72.99   73.09</time>
   <energy>
    <i name="e_fr_energy">   -291.56809272 </i>
    <i name="e_wo_entrp">   -291.56809272 </i>
    <i name="e_0_energy">   -291.56809272 </i>
   </energy>
  </scstep>
  <scstep>
   <time name="dav">   73.03   73.69</time>
   <time name="total">   73.81   74.55</time>
   <energy>
    <i name="e_fr_energy">   -291.56809106 </i>
    <i name="e_wo_entrp">   -291.56809106 </i>
    <i name="e_0_energy">   -291.56809106 </i>
   </energy>
  </scstep>
  <scstep>
   <time name="dav">   68.32   68.63</time>
   <time name="total">   69.12   69.43</time>
   <energy>
    <i name="e_fr_energy">   -291.56809720 </i>
    <i name="e_wo_entrp">   -291.56809720 </i>
    <i name="e_0_energy">   -291.56809720 </i>
   </energy>
  </scstep>
  <scstep>
   <time name="dav">   65.62   66.01</time>
   <time name="total">   66.45   66.85</time>
   <energy>
    <i name="e_fr_energy">   -291.56809856 </i>
    <i name="e_wo_entrp">   -291.56809856 </i>
    <i name="e_0_energy">   -291.56809856 </i>
   </energy>
  </scstep>
  <scstep>
   <time name="dav">   59.97   60.22</time>
   <time name="total">   60.72   61.09</time>
   <energy>
    <i name="e_fr_energy">   -291.56809979 </i>
    <i name="e_wo_entrp">   -291.56809979 </i>
    <i name="e_0_energy">   -291.56809979 </i>
   </energy>
  </scstep>
  <scstep>
   <time name="dav">   44.56   44.74</time>
   <time name="total">   44.63   44.82</time>
   <energy>
    <i name="alphaZ">   1067.11773629 </i>
    <i name="ewald"> -30648.62540211 </i>
    <i name="hartreedc"> -12931.59731339 </i>
    <i name="XCdc">   1344.99094107 </i>
    <i name="pawpsdc">  43737.30250447 </i>
    <i name="pawaedc"> -43131.39261237 </i>
    <i name="eentropy">      0.00000000 </i>
    <i name="bandstr">  -4137.91118307 </i>
    <i name="atom">  44408.54722957 </i>
    <i name="e_fr_energy">   -291.56809954 </i>
    <i name="e_wo_entrp">   -291.56809954 </i>
    <i name="e_0_energy">   -291.56809954 </i>
   </energy>
  </scstep>
  <structure>
   <crystal>
    <varray name="basis" >
     <v>      11.17850000       0.00000000       0.00000000 </v>
     <v>       0.00000000       9.57460000       0.00000000 </v>
     <v>       0.00000000       0.00000000      11.18240000 </v>
    </varray>
    <i name="volume">   1196.84853820 </i>
    <varray name="rec_basis" >
     <v>       0.08945744       0.00000000       0.00000000 </v>
     <v>       0.00000000       0.10444301       0.00000000 </v>
     <v>       0.00000000       0.00000000       0.08942624 </v>
    </varray>
   </crystal>
   <varray name="positions" >
    <v>       0.37539000       0.00017000       0.43687000 </v>
    <v>       0.62539000       0.99984000       0.43687000 </v>
    <v>       0.87539000       0.00017000       0.43687000 </v>
    <v>       0.87461000       0.00017000       0.18687000 </v>
    <v>       0.12539000       0.99984000       0.93687000 </v>
    <v>       0.37539000       0.00017000       0.93687000 </v>
    <v>       0.12461000       0.99984000       0.68687000 </v>
    <v>       0.62461000       0.99984000       0.68687000 </v>
    <v>       0.37461000       0.00017000       0.18687000 </v>
    <v>       0.37461000       0.00017000       0.68687000 </v>
    <v>       0.87539000       0.00017000       0.93687000 </v>
    <v>       0.87461000       0.00017000       0.68687000 </v>
    <v>       0.00013000       0.29519000       0.06281000 </v>
    <v>       0.25013000       0.70481000       0.06281000 </v>
    <v>       0.24987000       0.29519000       0.31282000 </v>
    <v>       0.49987000       0.70481000       0.31282000 </v>
    <v>       0.50013000       0.29519000       0.06281000 </v>
    <v>       0.75013000       0.70481000       0.06281000 </v>
    <v>       0.74987000       0.29519000       0.31282000 </v>
    <v>       0.99987000       0.70481000       0.31282000 </v>
    <v>       0.00013000       0.29519000       0.56281000 </v>
    <v>       0.25013000       0.70481000       0.56281000 </v>
    <v>       0.24987000       0.29519000       0.81282000 </v>
    <v>       0.49987000       0.70481000       0.81282000 </v>
    <v>       0.50013000       0.29519000       0.56281000 </v>
    <v>       0.75013000       0.70481000       0.56281000 </v>
    <v>       0.74987000       0.29519000       0.81282000 </v>
    <v>       0.99987000       0.70481000       0.81282000 </v>
    <v>       0.25005000       0.32677000       0.06286000 </v>
    <v>       0.00005000       0.67323000       0.06286000 </v>
    <v>       0.49995000       0.32677000       0.31286000 </v>
    <v>       0.24995000       0.67323000       0.31286000 </v>
    <v>       0.75005000       0.32677000       0.06286000 </v>
    <v>       0.50005000       0.67323000       0.06286000 </v>
    <v>       0.99995000       0.32677000       0.31286000 </v>
    <v>       0.74995000       0.67323000       0.31286000 </v>
    <v>       0.25005000       0.32677000       0.56286000 </v>
    <v>       0.00005000       0.67323000       0.56286000 </v>
    <v>       0.49995000       0.32677000       0.81286000 </v>
    <v>       0.24995000       0.67323000       0.81286000 </v>
    <v>       0.75005000       0.32677000       0.56286000 </v>
    <v>       0.50005000       0.67323000       0.56286000 </v>
    <v>       0.99995000       0.32677000       0.81286000 </v>
    <v>       0.74995000       0.67323000       0.81286000 </v>
    <v>       0.49987000       0.07798000       0.06246000 </v>
    <v>       0.24987000       0.92202000       0.06246000 </v>
    <v>       0.25013000       0.07798000       0.31246000 </v>
    <v>       0.00013000       0.92202000       0.31246000 </v>
    <v>       0.99987000       0.07798000       0.06246000 </v>
    <v>       0.74987000       0.92202000       0.06246000 </v>
    <v>       0.75013000       0.07798000       0.31246000 </v>
    <v>       0.50013000       0.92202000       0.31246000 </v>
    <v>       0.49987000       0.07798000       0.56246000 </v>
    <v>       0.24987000       0.92202000       0.56246000 </v>
    <v>       0.25013000       0.07798000       0.81246000 </v>
    <v>       0.00013000       0.92202000       0.81246000 </v>
    <v>       0.99987000       0.07798000       0.56246000 </v>
    <v>       0.74987000       0.92202000       0.56246000 </v>
    <v>       0.75013000       0.07798000       0.81246000 </v>
    <v>       0.50013000       0.92202000       0.81246000 </v>
   </varray>
  </structure>
  <varray name="forces" >
   <v>      -0.50611225      -0.00861233      -0.44688361 </v>
   <v>       0.05583772       0.05948176      -0.69867848 </v>
   <v>       0.48519275       0.00635858      -0.89375625 </v>
   <v>      -0.01305827      -0.12136543       0.49310388 </v>
   <v>       0.41163469       0.05810051       0.71123651 </v>
   <v>       0.50600722      -0.00892287       0.45298225 </v>
   <v>       0.09892881       0.05908938      -0.62859466 </v>
   <v>      -0.08208390      -0.06898124       0.40804563 </v>
   <v>       0.02490864       0.21039499       0.10605537 </v>
   <v>       0.02517734      -0.24087791      -0.02856690 </v>
   <v>      -1.02023027      -0.01079360       1.66815817 </v>
   <v>       0.00641400       0.21009396      -1.01361448 </v>
   <v>       0.13862681       0.05759280       0.67391153 </v>
   <v>      -0.15359042       0.01856500       0.40669940 </v>
   <v>      -0.36257254      -1.03397533      -0.08149419 </v>
   <v>       0.20475095       0.03022195      -0.27259034 </v>
   <v>       0.30543496      -1.03144166       0.20842092 </v>
   <v>      -0.31362743       0.99761614       0.44279939 </v>
   <v>      -0.00244436      -0.98314919      -0.32294464 </v>
   <v>       0.19307050       1.94599890      -0.13407268 </v>
   <v>       0.20757384       0.11309799      -0.71269608 </v>
   <v>      -0.22645077      -0.07493478      -0.58467108 </v>
   <v>       0.05637913       1.09686422       0.24952428 </v>
   <v>       0.15653186      -0.08136886       0.43347462 </v>
   <v>       0.01522520       1.07047944      -0.40284638 </v>
   <v>      -0.01680162      -1.09399418      -0.53574409 </v>
   <v>      -0.37146540       1.07840655       0.38559905 </v>
   <v>       0.17446739      -2.08349275       0.17577680 </v>
   <v>      -0.07233591       0.19981267      -0.32693551 </v>
   <v>       0.05333290      -0.16629507      -0.58994519 </v>
   <v>      -0.02654492       0.22799375       0.26004776 </v>
   <v>       0.26268812      -0.17198442       0.05278318 </v>
   <v>       0.17850010       0.13881485      -0.39758996 </v>
   <v>      -0.15857183      -0.15503126      -0.12854876 </v>
   <v>      -0.02616167       0.21361627       0.09980624 </v>
   <v>      -0.21605263      -0.24651098       0.31017675 </v>
   <v>       0.13527962       0.07209881       0.37853346 </v>
   <v>      -0.14467475      -0.05915962       0.54322933 </v>
   <v>      -0.06964237       0.05483875      -0.30474502 </v>
   <v>      -0.09703132      -0.09540082      -0.11474908 </v>
   <v>      -0.03046539       0.10709907       0.35521450 </v>
   <v>       0.04027637      -0.12216080       0.18636623 </v>
   <v>      -0.08203662       0.02268993      -0.07188594 </v>
   <v>       0.24547636       0.00319611      -0.25629287 </v>
   <v>      -1.64374939       0.80131916       0.28551754 </v>
   <v>       0.96087880      -0.10826531      -0.45964175 </v>
   <v>       1.66871200       0.81137841      -0.35348721 </v>
   <v>      -1.12070302      -1.61353782       0.08995363 </v>
   <v>      -0.93677436      -0.07614935      -1.51061115 </v>
   <v>       1.69108847      -0.72950526      -0.75108400 </v>
   <v>       0.44824922       0.86258847       0.83961511 </v>
   <v>      -1.03954347      -0.13748874       0.36303439 </v>
   <v>      -0.39133297      -0.83284798       0.63169545 </v>
   <v>       1.11102190       0.19003188       1.33231073 </v>
   <v>       0.31154598      -0.88568604      -0.55626095 </v>
   <v>      -0.91133301       1.64087129      -0.13208715 </v>
   <v>      -1.11893134      -0.24203411       1.48402908 </v>
   <v>       0.41137468       0.87752073       0.79186728 </v>
   <v>       1.66397987      -0.97408329      -0.82470657 </v>
   <v>      -1.09424397       0.22181868      -1.28424354 </v>
  </varray>
  <varray name="stress" >
   <v>      -8.63257587      -0.05434647       0.48929447 </v>
   <v>      -0.05434654     -13.64817761       0.30004930 </v>
   <v>       0.48929445       0.30004907      -1.45745200 </v>
  </varray>
  <energy>
   <i name="e_fr_energy">   -305.12692954 </i>
   <i name="e_wo_entrp">   -305.12692954 </i>
   <i name="e_0_energy">      0.00000000 </i>
  </energy>
  <time name="totalsc"> 1569.39 1579.34</time>
 </calculation>
 <calculation>
  <scstep>
   <time name="dav">   60.76   61.07</time>
   <time name="total">   61.54   61.86</time>
   <energy>
    <i name="alphaZ">   1082.49332616 </i>
    <i name="ewald"> -30775.89166760 </i>
    <i name="hartreedc"> -12998.00214418 </i>
    <i name="XCdc">   1353.44548843 </i>
    <i name="pawpsdc">  43737.29590535 </i>
    <i name="pawaedc"> -43131.38780040 </i>
    <i name="eentropy">      0.00000000 </i>
    <i name="bandstr">  -3967.35914841 </i>
    <i name="atom">  44408.54722957 </i>
    <i name="e_fr_energy">   -290.85881108 </i>
    <i name="e_wo_entrp">   -290.85881108 </i>
    <i name="e_0_energy">   -290.85881108 </i>
   </energy>
  </scstep>
  <scstep>
   <time name="dav">   69.87   70.42</time>
   <time name="total">   70.66   71.21</time>
   <energy>
    <i name="e_fr_energy">   -293.71388763 </i>
    <i name="e_wo_entrp">   -293.71388763 </i>
    <i name="e_0_energy">   -293.71388763 </i>
   </energy>
  </scstep>
  <scstep>
   <time name="dav">   87.49   88.25</time>
   <time name="total">   88.27   89.04</time>
   <energy>
    <i name="e_fr_energy">   -293.47688851 </i>
    <i name="e_wo_entrp">   -293.47688851 </i>
    <i name="e_0_energy">   -293.47688851 </i>
   </energy>
  </scstep>
  <scstep>
   <time name="dav">   77.91   78.36</time>
   <time name="total">   78.71   79.17</time>
   <energy>
    <i name="e_fr_energy">   -293.33298669 </i>
    <i name="e_wo_entrp">   -293.33298669 </i>
    <i name="e_0_energy">   -293.33298669 </i>
   </energy>
  </scstep>
  <scstep>
   <time name="dav">   78.74   79.13</time>
   <time name="total">   79.53   79.92</time>
   <energy>
    <i name="e_fr_energy">   -293.32945536 </i>
    <i name="e_wo_entrp">   -293.32945536 </i>
    <i name="e_0_energy">   -293.32945536 </i>
   </energy>
  </scstep>
  <scstep>
   <time name="dav">   78.09   78.26</time>
   <time name="total">   78.88   79.05</time>
   <energy>
    <i name="e_fr_energy">   -293.32779229 </i>
    <i name="e_wo_entrp">   -293.32779229 </i>
    <i name="e_0_energy">   -293.32779229 </i>
   </energy>
  </scstep>
  <scstep>
   <time name="dav">   75.73   75.78</time>
   <time name="total">   76.51   76.57</time>
   <energy>
    <i name="e_fr_energy">   -293.32678672 </i>
    <i name="e_wo_entrp">   -293.32678672 </i>
    <i name="e_0_energy">   -293.32678672 </i>
   </energy>
  </scstep>
  <scstep>
   <time name="dav">   95.51   95.87</time>
   <time name="total">   96.29   96.66</time>
   <energy>
    <i name="e_fr_energy">   -293.32673930 </i>
    <i name="e_wo_entrp">   -293.32673930 </i>
    <i name="e_0_energy">   -293.32673930 </i>
   </energy>
  </scstep>
  <scstep>
   <time name="dav">   71.86   72.24</time>
   <time name="total">   72.65   73.03</time>
   <energy>
    <i name="e_fr_energy">   -293.32677798 </i>
    <i name="e_wo_entrp">   -293.32677798 </i>
    <i name="e_0_energy">   -293.32677798 </i>
   </energy>
  </scstep>
  <scstep>
   <time name="dav">   84.75   84.97</time>
   <time name="total">   85.59   85.81</time>
   <energy>
    <i name="e_fr_energy">   -293.32678446 </i>
    <i name="e_wo_entrp">   -293.32678446 </i>
    <i name="e_0_energy">   -293.32678446 </i>
   </energy>
  </scstep>
  <scstep>
   <time name="dav">   75.50   75.81</time>
   <time name="total">   76.28   76.61</time>
   <energy>
    <i name="e_fr_energy">   -293.32678554 </i>
    <i name="e_wo_entrp">   -293.32678554 </i>
    <i name="e_0_energy">   -293.32678554 </i>
   </energy>
  </scstep>
  <scstep>
   <time name="dav">   71.55   71.78</time>
   <time name="total">   71.62   71.85</time>
   <energy>
    <i name="alphaZ">   1082.49332616 </i>
    <i name="ewald"> -30775.89166760 </i>
    <i name="hartreedc"> -12873.51503442 </i>
    <i name="XCdc">   1347.95238212 </i>
    <i name="pawpsdc">  44074.57112113 </i>
    <i name="pawaedc"> -43471.20537305 </i>
    <i name="eentropy">      0.00000000 </i>
    <i name="bandstr">  -4086.27876928 </i>
    <i name="atom">  44408.54722957 </i>
    <i name="e_fr_energy">   -293.32678537 </i>
    <i name="e_wo_entrp">   -293.32678537 </i>
    <i name="e_0_energy">   -293.32678537 </i>
   </energy>
  </scstep>
  <structure>
   <crystal>
    <varray name="basis" >
     <v>      11.12053945      -0.00036489       0.00328520 </v>
     <v>      -0.00031254       9.49611189       0.00172553 </v>
     <v>       0.00328635       0.00201528      11.17261101 </v>
    </varray>
    <i name="volume">   1179.84866225 </i>
    <varray name="rec_basis" >
     <v>       0.08992370       0.00000296      -0.00002645 </v>
     <v>       0.00000346       0.10530626      -0.00001900 </v>
     <v>      -0.00002644      -0.00001626       0.08950460 </v>
    </varray>
   </crystal>
   <varray name="positions" >
    <v>       0.37320579       0.00012661       0.43494207 </v>
    <v>       0.62563098       0.00013971       0.43385579 </v>
    <v>       0.87748393       0.00020204       0.43301419 </v>
    <v>       0.87455364      -0.00044151       0.18899733 </v>
    <v>       0.12716648       0.00013275       0.93993839 </v>
    <v>       0.37757376       0.00012504       0.93882424 </v>
    <v>       0.12503694       0.00013773       0.68415814 </v>
    <v>       0.62425575       0.99949243       0.68863037 </v>
    <v>       0.37471750       0.00123010       0.18732754 </v>
    <v>       0.37471866      -0.00104369       0.68674676 </v>
    <v>       0.87098703       0.00011562       0.94406670 </v>
    <v>       0.87463768       0.00122858       0.68249711 </v>
    <v>       0.00072827       0.29548019       0.06571736 </v>
    <v>       0.24946716       0.70490354       0.06456457 </v>
    <v>       0.24830526       0.28998020       0.31246842 </v>
    <v>       0.50075364       0.70496228       0.31164400 </v>
    <v>       0.50144815       0.28999297       0.06370916 </v>
    <v>       0.74877649       0.70983660       0.06472031 </v>
    <v>       0.74985945       0.29023630       0.31142677 </v>
    <v>       0.00070323       0.71461513       0.31224159 </v>
    <v>       0.00102582       0.29575986       0.55973532 </v>
    <v>       0.24915271       0.70443243       0.56028764 </v>
    <v>       0.25011331       0.30071667       0.81389649 </v>
    <v>       0.50054554       0.70440001       0.81469008 </v>
    <v>       0.50019571       0.30058373       0.56107206 </v>
    <v>       0.75005749       0.69929779       0.56049871 </v>
    <v>       0.74826688       0.30062367       0.81448354 </v>
    <v>       0.00062294       0.69431210       0.81357833 </v>
    <v>       0.24973782       0.32777678       0.06144955 </v>
    <v>       0.00028017       0.67239210       0.06031488 </v>
    <v>       0.49983544       0.32791877       0.31398189 </v>
    <v>       0.25108367       0.67236344       0.31308772 </v>
    <v>       0.75082035       0.32746943       0.06114473 </v>
    <v>       0.49936566       0.67244886       0.06230542 </v>
    <v>       0.99983710       0.32784633       0.31329058 </v>
    <v>       0.74901759       0.67198793       0.31419815 </v>
    <v>       0.25063382       0.32713328       0.56449305 </v>
    <v>      -0.00057437       0.67293192       0.56520358 </v>
    <v>       0.49964945       0.32704631       0.81154528 </v>
    <v>       0.24953125       0.67274931       0.81236495 </v>
    <v>       0.74991852       0.32730963       0.56439245 </v>
    <v>       0.50022382       0.67261448       0.56366401 </v>
    <v>       0.99959596       0.32688433       0.81254987 </v>
    <v>       0.75100939       0.67324610       0.81175431 </v>
    <v>       0.49277613       0.08201753       0.06369177 </v>
    <v>       0.25401683       0.92147449       0.06047703 </v>
    <v>       0.25733160       0.08206822       0.31093500 </v>
    <v>      -0.00470658       0.91389002       0.31284807 </v>
    <v>       0.99582720       0.07759631       0.05594298 </v>
    <v>       0.75716817       0.91834431       0.05921970 </v>
    <v>       0.75206449       0.08232624       0.31608223 </v>
    <v>       0.49564368       0.92132725       0.31402619 </v>
    <v>       0.49818114       0.07378361       0.56518523 </v>
    <v>       0.25466480       0.92297750       0.56820780 </v>
    <v>       0.25147453       0.07351738       0.81006020 </v>
    <v>      -0.00380301       0.93028771       0.81189016 </v>
    <v>       0.99504107       0.07676049       0.56886234 </v>
    <v>       0.75164536       0.92644148       0.56587624 </v>
    <v>       0.75731118       0.07307198       0.80890208 </v>
    <v>       0.49540761       0.92313766       0.80691957 </v>
   </varray>
  </structure>
  <varray name="forces" >
   <v>      -0.34260603      -0.01679127      -0.14563021 </v>
   <v>      -0.02417749       0.02612382      -0.34591660 </v>
   <v>       0.34196206       0.01527128      -0.45300744 </v>
   <v>       0.03805814      -0.06500000       0.33577076 </v>
   <v>       0.19184526       0.03291596       0.32137285 </v>
   <v>       0.33782687      -0.01758090       0.15154620 </v>
   <v>      -0.01496409       0.03184219      -0.27157494 </v>
   <v>       0.02836947      -0.03309466       0.29879148 </v>
   <v>       0.00797266      -0.02653199       0.02790784 </v>
   <v>       0.02322803      -0.00374260       0.05727598 </v>
   <v>      -0.36157622       0.09970695      -0.17119301 </v>
   <v>       0.00430557      -0.03392323       0.06554071 </v>
   <v>       0.12261127       0.18485619       0.17792312 </v>
   <v>      -0.12853988      -0.37445218       0.12818793 </v>
   <v>      -0.23851775       1.00138833       0.00798826 </v>
   <v>       0.09517599      -0.43008542      -0.07038919 </v>
   <v>       0.23637632       0.98705909       0.05491499 </v>
   <v>      -0.24945167      -0.93401455       0.18320764 </v>
   <v>      -0.09148174       1.13321081      -0.12280110 </v>
   <v>       0.27262093      -2.45332996      -0.06223215 </v>
   <v>       0.08480246       0.03411027      -0.20732829 </v>
   <v>      -0.09243817      -0.06325451      -0.22905462 </v>
   <v>      -0.03781292      -0.07336530       0.08650924 </v>
   <v>       0.08405046      -0.03056680       0.15083975 </v>
   <v>       0.01227807      -0.02796242      -0.16626711 </v>
   <v>      -0.02353906       0.01993493      -0.16057170 </v>
   <v>      -0.05640016      -0.20444796       0.09483560 </v>
   <v>       0.03390352       0.12608465       0.07617819 </v>
   <v>      -0.02785806       0.18391104      -0.13151953 </v>
   <v>      -0.00689762      -0.18621274      -0.28688004 </v>
   <v>      -0.01995464       0.20117093       0.11264870 </v>
   <v>       0.16769377      -0.10757403       0.01226885 </v>
   <v>       0.12860669       0.07148282      -0.20701392 </v>
   <v>      -0.09331048      -0.09121124      -0.04208004 </v>
   <v>      -0.04712452       0.08861079       0.05345088 </v>
   <v>      -0.09680097      -0.16183498       0.15716995 </v>
   <v>       0.06438311       0.11412602       0.16475827 </v>
   <v>      -0.07637529      -0.11585807       0.22851351 </v>
   <v>      -0.05296291       0.10922561      -0.13105353 </v>
   <v>      -0.00045784      -0.22205013      -0.05754502 </v>
   <v>       0.00815354       0.21784034       0.14851109 </v>
   <v>       0.00603533      -0.22836836       0.08278756 </v>
   <v>      -0.03377841       0.28777838      -0.02818143 </v>
   <v>       0.08756528      -0.15530621      -0.07804454 </v>
   <v>      -1.23119108      -1.06717133       0.25098310 </v>
   <v>       0.77726701       0.26037334      -0.20091779 </v>
   <v>       1.23534038      -1.08125220      -0.26557990 </v>
   <v>      -1.06318260       2.76208316       0.01448636 </v>
   <v>      -0.56918317      -0.00357090      -0.60755789 </v>
   <v>       0.96917364       0.83667234      -0.00452539 </v>
   <v>       0.45554271      -1.22317727       0.56305969 </v>
   <v>      -0.75954748       0.30408613       0.19526159 </v>
   <v>      -0.18135803       0.34500733       0.21721948 </v>
   <v>       0.58892092      -0.05741029       0.62915548 </v>
   <v>       0.21111370       0.37041361      -0.23330359 </v>
   <v>      -0.50578873      -0.61436236       0.05647089 </v>
   <v>      -0.46394756       0.17344594       0.48048075 </v>
   <v>       0.09765747      -0.38691977       0.10448904 </v>
   <v>       0.79998344       0.53293195      -0.35041566 </v>
   <v>      -0.62159949      -0.06124057      -0.65992111 </v>
  </varray>
  <varray name="stress" >
   <v>       9.34102030       1.06027310      -0.87503118 </v>
   <v>       1.06027270       8.64243749      -0.49057495 </v>
   <v>      -0.87503147      -0.49057484       6.68159858 </v>
  </varray>
  <energy>
   <i name="e_fr_energy">   -307.05143017 </i>
   <i name="e_wo_entrp">   -307.05143017 </i>
   <i name="e_0_energy">      0.00000000 </i>
  </energy>
  <time name="totalsc"> 1042.87 1047.49</time>
 </calculation>
 <calculation>
  <scstep>
   <time name="dav">   64.46   64.82</time>
   <time name="total">   65.24   65.61</time>
   <energy>
    <i name="alphaZ">   1082.57974538 </i>
    <i name="ewald"> -30776.48251683 </i>
    <i name="hartreedc"> -12874.03094531 </i>
    <i name="XCdc">   1348.00241731 </i>
    <i name="pawpsdc">  44074.73512754 </i>
    <i name="pawaedc"> -43471.37138221 </i>
    <i name="eentropy">      0.00000000 </i>
    <i name="bandstr">  -4085.30528515 </i>
    <i name="atom">  44408.54722957 </i>
    <i name="e_fr_energy">   -293.32560970 </i>
    <i name="e_wo_entrp">   -293.32560970 </i>
    <i name="e_0_energy">   -293.32560970 </i>
   </energy>
  </scstep>
  <scstep>
   <time name="dav">   69.79   70.16</time>
   <time name="total">   70.57   70.94</time>
   <energy>
    <i name="e_fr_energy">   -293.32569964 </i>
    <i name="e_wo_entrp">   -293.32569964 </i>
    <i name="e_0_energy">   -293.32569964 </i>
   </energy>
  </scstep>
  <scstep>
   <time name="dav">   78.79   79.02</time>
   <time name="total">   79.57   79.80</time>
   <energy>
    <i name="e_fr_energy">   -293.32569253 </i>
    <i name="e_wo_entrp">   -293.32569253 </i>
    <i name="e_0_energy">   -293.32569253 </i>
   </energy>
  </scstep>
  <scstep>
   <time name="dav">   77.93   78.10</time>
   <time name="total">   78.71   78.89</time>
   <energy>
    <i name="e_fr_energy">   -293.32568979 </i>
    <i name="e_wo_entrp">   -293.32568979 </i>
    <i name="e_0_energy">   -293.32568979 </i>
   </energy>
  </scstep>
  <scstep>
   <time name="dav">   61.65   61.70</time>
   <time name="total">   61.72   61.78</time>
   <energy>
    <i name="alphaZ">   1082.57974538 </i>
    <i name="ewald"> -30776.48251683 </i>
    <i name="hartreedc"> -12873.32069045 </i>
    <i name="XCdc">   1347.97133084 </i>
    <i name="pawpsdc">  44077.54920572 </i>
    <i name="pawaedc"> -43474.21336885 </i>
    <i name="eentropy">      0.00000000 </i>
    <i name="bandstr">  -4085.95662581 </i>
    <i name="atom">  44408.54722957 </i>
    <i name="e_fr_energy">   -293.32569044 </i>
    <i name="e_wo_entrp">   -293.32569044 </i>
    <i name="e_0_energy">   -293.32569044 </i>
   </energy>
  </scstep>
  <structure>
   <crystal>
    <varray name="basis" >
     <v>      11.12021710      -0.00036692       0.00330348 </v>
     <v>      -0.00031427       9.49567538       0.00173512 </v>
     <v>       0.00330463       0.00202649      11.17255657 </v>
    </varray>
    <i name="volume">   1179.75447833 </i>
    <varray name="rec_basis" >
     <v>       0.08992631       0.00000298      -0.00002660 </v>
     <v>       0.00000348       0.10531110      -0.00001910 </v>
     <v>      -0.00002659      -0.00001636       0.08950504 </v>
    </varray>
   </crystal>
   <varray name="positions" >
    <v>       0.37319358       0.00012636       0.43493134 </v>
    <v>       0.62563233       0.00014139       0.43383901 </v>
    <v>       0.87749564       0.00020222       0.43299273 </v>
    <v>       0.87455333      -0.00044494       0.18900917 </v>
    <v>       0.12717640       0.00013438       0.93995546 </v>
    <v>       0.37758596       0.00012479       0.93883511 </v>
    <v>       0.12503933       0.00013940       0.68414305 </v>
    <v>       0.62425377       0.99949048       0.68864017 </v>
    <v>       0.37471810       0.00123604       0.18733009 </v>
    <v>       0.37471926      -0.00105049       0.68674607 </v>
    <v>       0.87096240       0.00011530       0.94410677 </v>
    <v>       0.87463784       0.00123452       0.68247276 </v>
    <v>       0.00073161       0.29548181       0.06573354 </v>
    <v>       0.24946345       0.70490406       0.06457433 </v>
    <v>       0.24829651       0.28995099       0.31246647 </v>
    <v>       0.50075858       0.70496313       0.31163745 </v>
    <v>       0.50145552       0.28996383       0.06371417 </v>
    <v>       0.74876892       0.70986478       0.06473094 </v>
    <v>       0.74985939       0.29020852       0.31141901 </v>
    <v>       0.00070789       0.71467011       0.31223836 </v>
    <v>       0.00103083       0.29576306       0.55971820 </v>
    <v>       0.24914726       0.70443032       0.56027360 </v>
    <v>       0.25011467       0.30074766       0.81390247 </v>
    <v>       0.50054931       0.70439771       0.81470049 </v>
    <v>       0.50019608       0.30061397       0.56106238 </v>
    <v>       0.75005709       0.69926689       0.56048585 </v>
    <v>       0.74825792       0.30065413       0.81449279 </v>
    <v>       0.00062715       0.69425323       0.81358256 </v>
    <v>       0.24973608       0.32778242       0.06144170 </v>
    <v>       0.00028146       0.67238741       0.06030072 </v>
    <v>       0.49983480       0.32792521       0.31398813 </v>
    <v>       0.25109001       0.67235858       0.31308898 </v>
    <v>       0.75082466       0.32747336       0.06113518 </v>
    <v>       0.49936183       0.67244448       0.06230233 </v>
    <v>       0.99983646       0.32785236       0.31329298 </v>
    <v>       0.74901237       0.67198096       0.31420560 </v>
    <v>       0.25063708       0.32713531       0.56450214 </v>
    <v>      -0.00057786       0.67293024       0.56521662 </v>
    <v>       0.49964777       0.32704786       0.81153796 </v>
    <v>       0.24952891       0.67274662       0.81236220 </v>
    <v>       0.74991778       0.32731265       0.56440098 </v>
    <v>       0.50022479       0.67261103       0.56366849 </v>
    <v>       0.99959398       0.32688497       0.81254815 </v>
    <v>       0.75101532       0.67324620       0.81174816 </v>
    <v>       0.49273647       0.08204017       0.06369863 </v>
    <v>       0.25404002       0.92147144       0.06046599 </v>
    <v>       0.25737186       0.08209115       0.31092650 </v>
    <v>      -0.00473362       0.91384443       0.31285025 </v>
    <v>       0.99580461       0.07759417       0.05590671 </v>
    <v>       0.75720898       0.91832370       0.05920166 </v>
    <v>       0.75207530       0.08235061       0.31610239 </v>
    <v>       0.49561860       0.92132336       0.31403491 </v>
    <v>       0.49817169       0.07376007       0.56520041 </v>
    <v>       0.25469159       0.92298286       0.56823979 </v>
    <v>       0.25148205       0.07349235       0.81004685 </v>
    <v>      -0.00382499       0.93033407       0.81188698 </v>
    <v>       0.99501406       0.07675364       0.56889798 </v>
    <v>       0.75165528       0.92646627       0.56589525 </v>
    <v>       0.75735133       0.07304446       0.80888227 </v>
    <v>       0.49538122       0.92314393       0.80688874 </v>
   </varray>
  </structure>
  <varray name="forces" >
   <v>      -0.34170775      -0.01687525      -0.14393418 </v>
   <v>      -0.02462137       0.02592879      -0.34405555 </v>
   <v>       0.34106937       0.01545995      -0.45046848 </v>
   <v>       0.03818538      -0.06460713       0.33471872 </v>
   <v>       0.19063546       0.03288483       0.31931737 </v>
   <v>       0.33696514      -0.01764858       0.14986719 </v>
   <v>      -0.01561212       0.03173654      -0.26935135 </v>
   <v>       0.02901313      -0.03288367       0.29817258 </v>
   <v>       0.00795721      -0.02808294       0.02738152 </v>
   <v>       0.02323462      -0.00207921       0.05786436 </v>
   <v>      -0.35733175       0.10126939      -0.18286498 </v>
   <v>       0.00374632      -0.03571088       0.07216670 </v>
   <v>       0.12248570       0.18560617       0.17507901 </v>
   <v>      -0.12839658      -0.37700149       0.12659095 </v>
   <v>      -0.23828040       1.01584477       0.00864248 </v>
   <v>       0.09456030      -0.43300663      -0.06926791 </v>
   <v>       0.23652993       1.00137356       0.05392786 </v>
   <v>      -0.24962677      -0.94731951       0.18202341 </v>
   <v>      -0.09213219       1.14831817      -0.12200250 </v>
   <v>       0.27421500      -2.49053803      -0.06194202 </v>
   <v>       0.08408914       0.03361229      -0.20427826 </v>
   <v>      -0.09164825      -0.06318420      -0.22688303 </v>
   <v>      -0.03826392      -0.07903335       0.08541425 </v>
   <v>       0.08364212      -0.03015612       0.14916069 </v>
   <v>       0.01224488      -0.03335468      -0.16465755 </v>
   <v>      -0.02355079       0.02527470      -0.15815565 </v>
   <v>      -0.05455487      -0.21040552       0.09302065 </v>
   <v>       0.03306294       0.13471165       0.07554494 </v>
   <v>      -0.02757362       0.18376031      -0.13035059 </v>
   <v>      -0.00730257      -0.18621406      -0.28510138 </v>
   <v>      -0.01996710       0.20095495       0.11174248 </v>
   <v>       0.16720116      -0.10714824       0.01202978 </v>
   <v>       0.12839397       0.07104828      -0.20590882 </v>
   <v>      -0.09296411      -0.09081451      -0.04156046 </v>
   <v>      -0.04730033       0.08789156       0.05318590 </v>
   <v>      -0.09602616      -0.16129966       0.15620753 </v>
   <v>       0.06393618       0.11431742       0.16357320 </v>
   <v>      -0.07597729      -0.11607476       0.22677570 </v>
   <v>      -0.05285139       0.10949273      -0.13008472 </v>
   <v>       0.00010350      -0.22270656      -0.05722230 </v>
   <v>       0.00842219       0.21840320       0.14742669 </v>
   <v>       0.00583355      -0.22891365       0.08222278 </v>
   <v>      -0.03353121       0.28908178      -0.02793370 </v>
   <v>       0.08667517      -0.15604831      -0.07705414 </v>
   <v>      -1.22924336      -1.08027354       0.25073445 </v>
   <v>       0.77634030       0.26233688      -0.19958660 </v>
   <v>       1.23317165      -1.09451567      -0.26503683 </v>
   <v>      -1.06375066       2.79902031       0.01419688 </v>
   <v>      -0.56643243      -0.00266684      -0.60202092 </v>
   <v>       0.96411079       0.84697262       0.00072281 </v>
   <v>       0.45565272      -1.23802293       0.56170237 </v>
   <v>      -0.75798180       0.30648886       0.19433032 </v>
   <v>      -0.17982262       0.35071540       0.21439114 </v>
   <v>       0.58535179      -0.05942553       0.62453053 </v>
   <v>       0.21021455       0.37638200      -0.23100230 </v>
   <v>      -0.50331245      -0.62325642       0.05762866 </v>
   <v>      -0.45902657       0.17665926       0.47372739 </v>
   <v>       0.09523196      -0.39315519       0.09987230 </v>
   <v>       0.79489665       0.54034185      -0.34732608 </v>
   <v>      -0.61838230      -0.06346515      -0.65584327 </v>
  </varray>
  <varray name="stress" >
   <v>       9.41691353       1.06786323      -0.88218662 </v>
   <v>       1.06786326       8.77428223      -0.49721633 </v>
   <v>      -0.88218660      -0.49721690       6.72144152 </v>
  </varray>
  <energy>
   <i name="e_fr_energy">   -307.05128880 </i>
   <i name="e_wo_entrp">   -307.05128880 </i>
   <i name="e_0_energy">      0.00000000 </i>
  </energy>
  <time name="totalsc">  460.64  463.62</time>
 </calculation>
 <calculation>
  <scstep>
   <time name="dav">   67.48   69.36</time>
   <time name="total">   68.27   70.15</time>
   <energy>
    <i name="alphaZ">   1074.66462576 </i>
    <i name="ewald"> -30805.26980664 </i>
    <i name="hartreedc"> -12740.36914500 </i>
    <i name="XCdc">   1343.17929326 </i>
    <i name="pawpsdc">  44077.51407651 </i>
    <i name="pawaedc"> -43474.17738227 </i>
    <i name="eentropy">      0.00000000 </i>
    <i name="bandstr">  -4176.21864362 </i>
    <i name="atom">  44408.54722957 </i>
    <i name="e_fr_energy">   -292.12975243 </i>
    <i name="e_wo_entrp">   -292.12975243 </i>
    <i name="e_0_energy">   -292.12975243 </i>
   </energy>
  </scstep>
  <scstep>
   <time name="dav">   67.26   67.88</time>
   <time name="total">   68.05   68.67</time>
   <energy>
    <i name="e_fr_energy">   -294.25512067 </i>
    <i name="e_wo_entrp">   -294.25512067 </i>
    <i name="e_0_energy">   -294.25512067 </i>
   </energy>
  </scstep>
  <scstep>
   <time name="dav">   86.66   87.48</time>
   <time name="total">   87.44   88.27</time>
   <energy>
    <i name="e_fr_energy">   -294.17960343 </i>
    <i name="e_wo_entrp">   -294.17960343 </i>
    <i name="e_0_energy">   -294.17960343 </i>
   </energy>
  </scstep>
  <scstep>
   <time name="dav">   71.60   72.42</time>
   <time name="total">   72.38   73.21</time>
   <energy>
    <i name="e_fr_energy">   -294.13618521 </i>
    <i name="e_wo_entrp">   -294.13618521 </i>
    <i name="e_0_energy">   -294.13618521 </i>
   </energy>
  </scstep>
  <scstep>
   <time name="dav">   74.62   74.91</time>
   <time name="total">   75.43   75.72</time>
   <energy>
    <i name="e_fr_energy">   -294.10863521 </i>
    <i name="e_wo_entrp">   -294.10863521 </i>
    <i name="e_0_energy">   -294.10863521 </i>
   </energy>
  </scstep>
  <scstep>
   <time name="dav">   70.07   71.26</time>
   <time name="total">   70.85   72.05</time>
   <energy>
    <i name="e_fr_energy">   -294.10822748 </i>
    <i name="e_wo_entrp">   -294.10822748 </i>
    <i name="e_0_energy">   -294.10822748 </i>
   </energy>
  </scstep>
  <scstep>
   <time name="dav">   82.95   84.70</time>
   <time name="total">   83.73   85.49</time>
   <energy>
    <i name="e_fr_energy">   -294.10829870 </i>
    <i name="e_wo_entrp">   -294.10829870 </i>
    <i name="e_0_energy">   -294.10829870 </i>
   </energy>
  </scstep>
  <scstep>
   <time name="dav">   83.83   84.94</time>
   <time name="total">   84.62   85.73</time>
   <energy>
    <i name="e_fr_energy">   -294.10819945 </i>
    <i name="e_wo_entrp">   -294.10819945 </i>
    <i name="e_0_energy">   -294.10819945 </i>
   </energy>
  </scstep>
  <scstep>
   <time name="dav">   75.42   76.17</time>
   <time name="total">   76.21   76.96</time>
   <energy>
    <i name="e_fr_energy">   -294.10820702 </i>
    <i name="e_wo_entrp">   -294.10820702 </i>
    <i name="e_0_energy">   -294.10820702 </i>
   </energy>
  </scstep>
  <scstep>
   <time name="dav">   74.33   74.62</time>
   <time name="total">   75.11   75.41</time>
   <energy>
    <i name="e_fr_energy">   -294.10820682 </i>
    <i name="e_wo_entrp">   -294.10820682 </i>
    <i name="e_0_energy">   -294.10820682 </i>
   </energy>
  </scstep>
  <scstep>
   <time name="dav">   66.05   66.52</time>
   <time name="total">   66.84   67.36</time>
   <energy>
    <i name="e_fr_energy">   -294.10821056 </i>
    <i name="e_wo_entrp">   -294.10821056 </i>
    <i name="e_0_energy">   -294.10821056 </i>
   </energy>
  </scstep>
  <scstep>
   <time name="dav">   63.72   64.22</time>
   <time name="total">   63.81   64.31</time>
   <energy>
    <i name="alphaZ">   1074.66462576 </i>
    <i name="ewald"> -30805.26980664 </i>
    <i name="hartreedc"> -12807.28731604 </i>
    <i name="XCdc">   1346.33477364 </i>
    <i name="pawpsdc">  43737.20827486 </i>
    <i name="pawaedc"> -43129.24213935 </i>
    <i name="eentropy">      0.00000000 </i>
    <i name="bandstr">  -4119.06385325 </i>
    <i name="atom">  44408.54722957 </i>
    <i name="e_fr_energy">   -294.10821146 </i>
    <i name="e_wo_entrp">   -294.10821146 </i>
    <i name="e_0_energy">   -294.10821146 </i>
   </energy>
  </scstep>
  <structure>
   <crystal>
    <varray name="basis" >
     <v>      11.15229157       0.00648164      -0.00079943 </v>
     <v>       0.00553310       9.50456814      -0.00016691 </v>
     <v>      -0.00081859      -0.00021485      11.21197767 </v>
    </varray>
    <i name="volume">   1188.44360571 </i>
    <varray name="rec_basis" >
     <v>       0.08966770      -0.00005220       0.00000655 </v>
     <v>      -0.00006115       0.10521260       0.00000201 </v>
     <v>       0.00000639       0.00000156       0.08919033 </v>
    </varray>
   </crystal>
   <varray name="positions" >
    <v>       0.37056789       0.00001802       0.43330622 </v>
    <v>       0.62565232       0.00043111       0.43078243 </v>
    <v>       0.88007302       0.00029860       0.42903726 </v>
    <v>       0.87468892      -0.00109482       0.19156368 </v>
    <v>       0.12893238       0.00045461       0.94293270 </v>
    <v>       0.38019081       0.00001119       0.94049962 </v>
    <v>       0.12519555       0.00045753       0.68156676 </v>
    <v>       0.62419388       0.99914046       0.69084566 </v>
    <v>       0.37480877       0.00164914       0.18768656 </v>
    <v>       0.37487692      -0.00169767       0.68693210 </v>
    <v>       0.86710734       0.00060107       0.94706411 </v>
    <v>       0.87466918       0.00160852       0.68050803 </v>
    <v>       0.00157576       0.29657758       0.06800359 </v>
    <v>       0.24855872       0.70303530       0.06603558 </v>
    <v>       0.24644356       0.29238520       0.31232096 </v>
    <v>       0.50163152       0.70284090       0.31072585 </v>
    <v>       0.50317191       0.29233109       0.06441453 </v>
    <v>       0.74697644       0.70768252       0.06651320 </v>
    <v>       0.74945420       0.29345112       0.31016589 </v>
    <v>       0.00233448       0.70714573       0.31167015 </v>
    <v>       0.00186521       0.29623346       0.55723408 </v>
    <v>       0.24823887       0.70391138       0.55797999 </v>
    <v>       0.25007551       0.30324415       0.81483177 </v>
    <v>       0.50126532       0.70402899       0.81631872 </v>
    <v>       0.50028417       0.30327362       0.55944535 </v>
    <v>       0.74991737       0.69650475       0.55859935 </v>
    <v>       0.74718240       0.30243356       0.81576101 </v>
    <v>       0.00116410       0.68943224       0.81430451 </v>
    <v>       0.24945352       0.32924536       0.06014377 </v>
    <v>       0.00037081       0.67100138       0.05774343 </v>
    <v>       0.49968791       0.32954958       0.31505504 </v>
    <v>       0.25240889       0.67135912       0.31325930 </v>
    <v>       0.75178564       0.32820198       0.05935169 </v>
    <v>       0.49860036       0.67157296       0.06183431 </v>
    <v>       0.99957189       0.32886381       0.31374698 </v>
    <v>       0.74810732       0.67050879       0.31557802 </v>
    <v>       0.25121960       0.32790697       0.56605914 </v>
    <v>      -0.00123499       0.67218304       0.56741735 </v>
    <v>       0.49926146       0.32774993       0.81029117 </v>
    <v>       0.24931050       0.67136189       0.81185739 </v>
    <v>       0.74988523       0.32870620       0.56583589 </v>
    <v>       0.50034074       0.67112375       0.56444270 </v>
    <v>       0.99926335       0.32841529       0.81226580 </v>
    <v>       0.75194595       0.67246119       0.81083927 </v>
    <v>       0.48368781       0.07866267       0.06542698 </v>
    <v>       0.25958068       0.92252023       0.05856904 </v>
    <v>       0.26649379       0.07866927       0.30898469 </v>
    <v>      -0.01188240       0.92381622       0.31311422 </v>
    <v>       0.99123236       0.07738047       0.04991280 </v>
    <v>       0.76521292       0.92070434       0.05751508 </v>
    <v>       0.75506438       0.07833260       0.32041605 </v>
    <v>       0.48998029       0.92251829       0.31569183 </v>
    <v>       0.49650690       0.07334234       0.56754655 </v>
    <v>       0.25973931       0.92318179       0.57393039 </v>
    <v>       0.25309873       0.07306664       0.80779848 </v>
    <v>      -0.00806742       0.93150025       0.81184050 </v>
    <v>       0.99049387       0.07701121       0.57428029 </v>
    <v>       0.75299655       0.92678522       0.56810510 </v>
    <v>       0.76455962       0.07321951       0.80552638 </v>
    <v>       0.49022793       0.92340836       0.80117069 </v>
   </varray>
  </structure>
  <varray name="forces" >
   <v>      -0.19987018      -0.02641416       0.04153562 </v>
   <v>      -0.03638058       0.02733525      -0.19882697 </v>
   <v>       0.16624301       0.02866510      -0.13341044 </v>
   <v>       0.03480094      -0.08862970       0.22305815 </v>
   <v>       0.05904503       0.02718775       0.15530168 </v>
   <v>       0.19543635      -0.02661142      -0.02142604 </v>
   <v>      -0.04447513       0.02766138      -0.05737479 </v>
[...]
       <r>    8.6139    0.0000 </r>
       <r>    8.6598    0.0000 </r>
       <r>    8.6907    0.0000 </r>
       <r>    8.7139    0.0000 </r>
       <r>    8.7363    0.0000 </r>
       <r>    8.8296    0.0000 </r>
       <r>    8.9367    0.0000 </r>
      </set>
     </set>
    </set>
   </array>
  </eigenvalues>
  <separator name="orbital magnetization" >
   <v name="MAGDIPOLOUT">      0.00000000      0.00000000      0.00000000</v>
  </separator>
  <dos>
   <i name="efermi">      4.16869045 </i>
   <total>
    <array>
     <dimension dim="1">gridpoints</dimension>
     <dimension dim="2">spin</dimension>
     <field>energy</field>
     <field>total</field>
     <field>integrated</field>
     <set>
      <set comment="spin 1">
       <r>   -42.6983     0.0000     0.0000 </r>
       <r>   -42.5161     0.0000     0.0000 </r>
       <r>   -42.3339     0.0000     0.0000 </r>
       <r>   -42.1518     0.0000     0.0000 </r>
       <r>   -41.9696     0.0000     0.0000 </r>
       <r>   -41.7874     0.0000     0.0000 </r>
       <r>   -41.6052     0.0000     0.0000 </r>
       <r>   -41.4230     0.0000     0.0000 </r>
       <r>   -41.2408     0.0000     0.0000 </r>
       <r>   -41.0586     0.0000     0.0000 </r>
       <r>   -40.8765     0.0000     0.0000 </r>
       <r>   -40.6943     0.0000     0.0000 </r>
       <r>   -40.5121     0.0000     0.0000 </r>
       <r>   -40.3299     0.0000     0.0000 </r>
       <r>   -40.1477     0.0000     2.0000 </r>
       <r>   -39.9655     0.0000     4.0000 </r>
       <r>   -39.7834     0.0000    12.0000 </r>
       <r>   -39.6012     0.0000    12.0000 </r>
       <r>   -39.4190     0.0000    12.0000 </r>
       <r>   -39.2368     0.0000    16.0000 </r>
       <r>   -39.0546     0.0000    16.0000 </r>
       <r>   -38.8724     0.0000    16.0000 </r>
       <r>   -38.6902     0.0000    16.0000 </r>
       <r>   -38.5081     0.0000    16.0000 </r>
       <r>   -38.3259     0.0000    16.0000 </r>
       <r>   -38.1437     0.0000    16.0000 </r>
       <r>   -37.9615     0.0000    16.0000 </r>
       <r>   -37.7793     0.0000    16.0000 </r>
       <r>   -37.5971     0.0000    16.0000 </r>
       <r>   -37.4150     0.0000    16.0000 </r>
       <r>   -37.2328     0.0000    16.0000 </r>
       <r>   -37.0506     0.0000    16.0000 </r>
       <r>   -36.8684     0.0000    16.0000 </r>
       <r>   -36.6862     0.0000    16.0000 </r>
       <r>   -36.5040     0.0000    16.0000 </r>
       <r>   -36.3218     0.0000    16.0000 </r>
       <r>   -36.1397     0.0000    16.0000 </r>
       <r>   -35.9575     0.0000    16.0000 </r>
       <r>   -35.7753     0.0000    16.0000 </r>
       <r>   -35.5931     0.0000    16.0000 </r>
       <r>   -35.4109     0.0000    16.0000 </r>
       <r>   -35.2287     0.0000    16.0000 </r>
       <r>   -35.0466     0.0000    16.0000 </r>
       <r>   -34.8644     0.0000    16.0000 </r>
       <r>   -34.6822     0.0000    16.0000 </r>
       <r>   -34.5000     0.0000    16.0000 </r>
       <r>   -34.3178     0.0000    16.0000 </r>
       <r>   -34.1356     0.0000    16.0000 </r>
       <r>   -33.9534     0.0000    16.0000 </r>
       <r>   -33.7713     0.0000    16.0000 </r>
       <r>   -33.5891     0.0000    16.0000 </r>
       <r>   -33.4069     0.0000    16.0000 </r>
       <r>   -33.2247     0.0000    16.0000 </r>
       <r>   -33.0425     0.0000    16.0000 </r>
       <r>   -32.8603     0.0000    16.0000 </r>
       <r>   -32.6782     0.0000    16.0000 </r>
       <r>   -32.4960     0.0000    16.0000 </r>
       <r>   -32.3138     0.0000    16.0000 </r>
       <r>   -32.1316     0.0000    16.0000 </r>
       <r>   -31.9494     0.0000    16.0000 </r>
       <r>   -31.7672     0.0000    16.0000 </r>
       <r>   -31.5850     0.0000    16.0000 </r>
       <r>   -31.4029     0.0000    16.0000 </r>
       <r>   -31.2207     0.0000    16.0000 </r>
       <r>   -31.0385     0.0000    16.0000 </r>
       <r>   -30.8563     0.0000    16.0000 </r>
       <r>   -30.6741     0.0000    16.0000 </r>
       <r>   -30.4919     0.0000    16.0000 </r>
       <r>   -30.3098     0.0000    16.0000 </r>
       <r>   -30.1276     0.0000    16.0000 </r>
       <r>   -29.9454     0.0000    16.0000 </r>
       <r>   -29.7632     0.0000    16.0000 </r>
       <r>   -29.5810     0.0000    16.0000 </r>
       <r>   -29.3988     0.0000    16.0000 </r>
       <r>   -29.2166     0.0000    16.0000 </r>
       <r>   -29.0345     0.0000    16.0000 </r>
       <r>   -28.8523     0.0000    16.0000 </r>
       <r>   -28.6701     0.0000    16.0000 </r>
       <r>   -28.4879     0.0000    16.0000 </r>
       <r>   -28.3057     0.0000    16.0000 </r>
       <r>   -28.1235     0.0000    16.0000 </r>
       <r>   -27.9414     0.0000    16.0000 </r>
       <r>   -27.7592     0.0000    16.0000 </r>
       <r>   -27.5770     0.0000    16.0000 </r>
       <r>   -27.3948     0.0000    16.0000 </r>
       <r>   -27.2126     0.0000    16.0000 </r>
       <r>   -27.0304     0.0000    16.0000 </r>
       <r>   -26.8482     0.0000    16.0000 </r>
       <r>   -26.6661     0.0000    16.0000 </r>
       <r>   -26.4839     0.0000    16.0000 </r>
       <r>   -26.3017     0.0000    16.0000 </r>
       <r>   -26.1195     0.0000    16.0000 </r>
       <r>   -25.9373     0.0000    16.0000 </r>
       <r>   -25.7551     0.0000    16.0000 </r>
       <r>   -25.5730     0.0000    16.0000 </r>
       <r>   -25.3908     0.0000    16.0000 </r>
       <r>   -25.2086     0.0000    16.0000 </r>
       <r>   -25.0264     0.0000    16.0000 </r>
       <r>   -24.8442     0.0000    16.0000 </r>
       <r>   -24.6620     0.0000    16.0000 </r>
       <r>   -24.4798     0.0000    16.0000 </r>
       <r>   -24.2977     0.0000    16.0000 </r>
       <r>   -24.1155     0.0000    16.0000 </r>
       <r>   -23.9333     0.0000    16.0000 </r>
       <r>   -23.7511     0.0000    16.0000 </r>
       <r>   -23.5689     0.0000    16.0000 </r>
       <r>   -23.3867     0.0000    16.0000 </r>
       <r>   -23.2046     0.0000    16.0000 </r>
       <r>   -23.0224     0.0000    16.0000 </r>
       <r>   -22.8402     0.0000    16.0000 </r>
       <r>   -22.6580     0.0000    16.0000 </r>
       <r>   -22.4758     0.0000    16.0000 </r>
       <r>   -22.2936     0.0000    16.0000 </r>
       <r>   -22.1114     0.0000    16.0000 </r>
       <r>   -21.9293     0.0000    16.0000 </r>
       <r>   -21.7471     0.0000    16.0000 </r>
       <r>   -21.5649     0.0000    16.0000 </r>
       <r>   -21.3827     0.0000    16.0000 </r>
       <r>   -21.2005     0.0000    16.0000 </r>
       <r>   -21.0183     0.0000    16.0000 </r>
       <r>   -20.8362     0.0000    16.0000 </r>
       <r>   -20.6540     0.0000    16.0000 </r>
       <r>   -20.4718     0.0000    16.0000 </r>
       <r>   -20.2896     0.0000    16.0000 </r>
       <r>   -20.1074     0.0000    16.0000 </r>
       <r>   -19.9252     0.0000    16.0000 </r>
       <r>   -19.7430     0.0000    16.0000 </r>
       <r>   -19.5609     0.0000    16.0000 </r>
       <r>   -19.3787     0.0000    16.0000 </r>
       <r>   -19.1965     0.0000    16.0000 </r>
       <r>   -19.0143     0.0000    16.0000 </r>
       <r>   -18.8321     0.0000    44.0000 </r>
       <r>   -18.6499     0.0000   124.0000 </r>
       <r>   -18.4677     0.0000   164.0000 </r>
       <r>   -18.2856     0.0000   176.0000 </r>
       <r>   -18.1034     0.0000   176.0000 </r>
       <r>   -17.9212     0.0000   176.0000 </r>
       <r>   -17.7390     0.0000   176.0000 </r>
       <r>   -17.5568     0.0000   176.0000 </r>
       <r>   -17.3746     0.0000   176.0000 </r>
       <r>   -17.1925     0.0000   176.0000 </r>
       <r>   -17.0103     0.0000   176.0000 </r>
       <r>   -16.8281     0.0000   176.0000 </r>
       <r>   -16.6459     0.0000   176.0000 </r>
       <r>   -16.4637     0.0000   176.0000 </r>
       <r>   -16.2815     0.0000   176.0000 </r>
       <r>   -16.0993     0.0000   176.0000 </r>
       <r>   -15.9172     0.0000   176.0000 </r>
       <r>   -15.7350     0.0000   176.0000 </r>
       <r>   -15.5528     0.0000   176.0000 </r>
       <r>   -15.3706     0.0000   176.0000 </r>
       <r>   -15.1884     0.0000   176.0000 </r>
       <r>   -15.0062     0.0000   176.0000 </r>
       <r>   -14.8241     0.0000   176.0000 </r>
       <r>   -14.6419     0.0000   176.0000 </r>
       <r>   -14.4597     0.0000   176.0000 </r>
       <r>   -14.2775     0.0000   176.0000 </r>
       <r>   -14.0953     0.0000   176.0000 </r>
       <r>   -13.9131     0.0000   176.0000 </r>
       <r>   -13.7309     0.0000   176.0000 </r>
       <r>   -13.5488     0.0000   176.0000 </r>
       <r>   -13.3666     0.0000   176.0000 </r>
       <r>   -13.1844     0.0575   178.0000 </r>
       <r>   -13.0022     0.0000   186.0000 </r>
       <r>   -12.8200     0.0000   196.0000 </r>
       <r>   -12.6378     0.0000   202.0000 </r>
       <r>   -12.4557     0.0000   206.0000 </r>
       <r>   -12.2735     0.0000   208.0000 </r>
       <r>   -12.0913     0.0000   208.0000 </r>
       <r>   -11.9091     0.0000   208.0000 </r>
       <r>   -11.7269     0.0000   208.0000 </r>
       <r>   -11.5447     0.0000   208.0000 </r>
       <r>   -11.3625     0.0000   208.0000 </r>
       <r>   -11.1804     0.0000   208.0000 </r>
       <r>   -10.9982     0.0000   208.0000 </r>
       <r>   -10.8160     0.0000   208.0000 </r>
       <r>   -10.6338     0.0000   208.0000 </r>
       <r>   -10.4516     0.0000   208.0000 </r>
       <r>   -10.2694     0.0000   208.0000 </r>
       <r>   -10.0873     0.0000   208.0000 </r>
       <r>    -9.9051     0.0000   208.0000 </r>
       <r>    -9.7229     0.0000   208.0000 </r>
       <r>    -9.5407     0.0000   208.0000 </r>
       <r>    -9.3585    11.1962   208.8342 </r>
       <r>    -9.1763    13.1167   210.6778 </r>
       <r>    -8.9941     1.9700   212.0128 </r>
       <r>    -8.8120    36.5415   214.3496 </r>
       <r>    -8.6298    29.7311   216.8481 </r>
       <r>    -8.4476    24.2827   221.9234 </r>
       <r>    -8.2654     0.0000   224.0000 </r>
       <r>    -8.0832    35.5652   228.9047 </r>
       <r>    -7.9010    39.9276   234.4807 </r>
       <r>    -7.7189    19.9312   236.8910 </r>
       <r>    -7.5367     2.0954   239.9773 </r>
       <r>    -7.3545     0.0000   240.0000 </r>
       <r>    -7.1723     0.0000   240.0000 </r>
       <r>    -6.9901     0.0000   240.0000 </r>
       <r>    -6.8079     0.0000   240.0000 </r>
       <r>    -6.6257     0.0000   240.0000 </r>
       <r>    -6.4436     1.1603   240.0168 </r>
       <r>    -6.2614    22.2638   241.8547 </r>
       <r>    -6.0792    22.2133   247.2391 </r>
       <r>    -5.8970    23.4815   249.8216 </r>
       <r>    -5.7148    23.5286   255.0095 </r>
       <r>    -5.5326    27.3203   259.1620 </r>
       <r>    -5.3505    11.6911   262.7346 </r>
       <r>    -5.1683     0.7873   264.0097 </r>
       <r>    -4.9861    11.4792   264.9927 </r>
       <r>    -4.8039    10.1845   267.4394 </r>
       <r>    -4.6217     4.3867   268.5397 </r>
       <r>    -4.4395     7.6871   269.6359 </r>
       <r>    -4.2573     5.2187   271.2265 </r>
       <r>    -4.0752     1.9170   271.7496 </r>
       <r>    -3.8930     0.5604   271.9751 </r>
       <r>    -3.7108     0.0000   272.0000 </r>
       <r>    -3.5286     0.0000   272.0000 </r>
       <r>    -3.3464     0.0000   272.0000 </r>
       <r>    -3.1642     0.0000   272.0000 </r>
       <r>    -2.9821     0.0000   272.0000 </r>
       <r>    -2.7999     0.0000   272.0000 </r>
       <r>    -2.6177     0.0000   272.0000 </r>
       <r>    -2.4355     0.0000   272.0000 </r>
       <r>    -2.2533     0.0000   272.0000 </r>
       <r>    -2.0711     0.0000   272.0000 </r>
       <r>    -1.8889     0.0000   272.0000 </r>
       <r>    -1.7068     0.0000   272.0000 </r>
       <r>    -1.5246     0.0000   272.0000 </r>
       <r>    -1.3424     3.9728   272.1401 </r>
       <r>    -1.1602     8.2311   273.5215 </r>
       <r>    -0.9780     6.6900   274.6823 </r>
       <r>    -0.7958    15.3118   276.8585 </r>
       <r>    -0.6137    10.4677   279.0919 </r>
       <r>    -0.4315    22.3930   281.7123 </r>
       <r>    -0.2493    31.9194   286.9246 </r>
       <r>    -0.0671    37.3295   293.7005 </r>
       <r>     0.1151    38.3744   300.9795 </r>
       <r>     0.2973    42.3470   308.8255 </r>
       <r>     0.4795    38.1235   314.4658 </r>
       <r>     0.6616    40.7489   321.0591 </r>
       <r>     0.8438    27.7739   328.4473 </r>
       <r>     1.0260    37.1994   336.0920 </r>
       <r>     1.2082    46.0800   344.7186 </r>
       <r>     1.3904    45.9753   352.8986 </r>
       <r>     1.5726    45.3664   361.3786 </r>
       <r>     1.7547    40.3216   370.0174 </r>
       <r>     1.9369    40.3301   377.8452 </r>
       <r>     2.1191    54.0499   386.5876 </r>
       <r>     2.3013    67.5754   397.4963 </r>
       <r>     2.4835    62.8363   410.3125 </r>
       <r>     2.6657    56.5695   421.3755 </r>
       <r>     2.8479    66.2050   432.1851 </r>
       <r>     3.0300    44.6581   442.5185 </r>
       <r>     3.2122    25.7159   449.4336 </r>
       <r>     3.3944    45.2174   456.5350 </r>
       <r>     3.5766    16.7675   460.6557 </r>
       <r>     3.7588     8.9147   462.9396 </r>
       <r>     3.9410     1.8686   463.9119 </r>
       <r>     4.1231     0.0000   464.0000 </r>
       <r>     4.3053     0.0000   464.0000 </r>
       <r>     4.4875     0.0000   464.0000 </r>
       <r>     4.6697     0.0000   464.0000 </r>
       <r>     4.8519     0.0000   464.0000 </r>
       <r>     5.0341     0.0464   464.0003 </r>
       <r>     5.2163     4.5503   464.3457 </r>
       <r>     5.3984    10.0673   465.6969 </r>
       <r>     5.5806     8.9970   467.6012 </r>
       <r>     5.7628    23.7882   471.0489 </r>
       <r>     5.9450    13.8983   474.2203 </r>
       <r>     6.1272    13.0495   476.6494 </r>
       <r>     6.3094    13.9385   479.0864 </r>
       <r>     6.4915    15.1912   481.7401 </r>
       <r>     6.6737    17.0859   484.6522 </r>
       <r>     6.8559    20.7458   488.0584 </r>
       <r>     7.0381    22.9344   492.1484 </r>
       <r>     7.2203    26.9240   496.5088 </r>
       <r>     7.4025    34.4278   502.4780 </r>
       <r>     7.5847    35.7128   508.7008 </r>
       <r>     7.7668    29.5919   515.2515 </r>
       <r>     7.9490    28.9269   520.5006 </r>
       <r>     8.1312    31.2721   526.1351 </r>
       <r>     8.3134    25.6675   531.2938 </r>
       <r>     8.4956    37.0066   536.9427 </r>
       <r>     8.6778    39.9021   543.5323 </r>
       <r>     8.8599    30.4730   549.6105 </r>
       <r>     9.0421    22.3979   554.3693 </r>
       <r>     9.2243     9.8285   557.1670 </r>
       <r>     9.4065    12.9219   559.1061 </r>
       <r>     9.5887     0.0000   560.0000 </r>
       <r>     9.7709     0.0000   560.0000 </r>
       <r>     9.9531     0.0000   560.0000 </r>
       <r>    10.1352     0.0000   560.0000 </r>
       <r>    10.3174     0.0000   560.0000 </r>
       <r>    10.4996     0.0000   560.0000 </r>
       <r>    10.6818     0.0000   560.0000 </r>
       <r>    10.8640     0.0000   560.0000 </r>
       <r>    11.0462     0.0000   560.0000 </r>
       <r>    11.2283     0.0000   560.0000 </r>
       <r>    11.4105     0.0000   560.0000 </r>
       <r>    11.5927     0.0000   560.0000 </r>
       <r>    11.7749     0.0000   560.0000 </r>
       <r>    11.9571     0.0000   560.0000 </r>
      </set>
     </set>
    </array>
   </total>
  </dos>
 </calculation>
 <structure name="finalpos" >
  <crystal>
   <varray name="basis" >
    <v>      11.24933855      -0.06252399      -0.01920039 </v>
    <v>      -0.05370392       9.59404321       0.03206873 </v>
    <v>      -0.01971322       0.03684912      11.23085878 </v>
   </varray>
   <i name="volume">   1212.05429608 </i>
   <varray name="rec_basis" >
    <v>       0.08889714       0.00049710       0.00015441 </v>
    <v>       0.00057876       0.10423572      -0.00034099 </v>
    <v>       0.00015033      -0.00029679       0.08904162 </v>
   </varray>
  </crystal>
  <varray name="positions" >
   <v>       0.35731540      -0.00374353       0.44341753 </v>
   <v>       0.61038928      -0.00336549       0.42499798 </v>
   <v>      -0.00342623       0.03925335       0.40733777 </v>
   <v>       0.80761510      -0.03382206       0.21664825 </v>
   <v>       0.13438354       0.01406337       0.06191124 </v>
   <v>       0.51232032      -0.03010321       0.95978094 </v>
   <v>       0.11682921       0.01135505       0.69418884 </v>
   <v>       0.61859488       0.99315824       0.68652741 </v>
   <v>       0.37918312      -0.00293794       0.20004858 </v>
   <v>       0.37196381      -0.00044105       0.69487158 </v>
   <v>       0.87280274       0.00189467       0.92854663 </v>
   <v>       0.86500393       0.00288049       0.66550695 </v>
   <v>      -0.00539782       0.31194466       0.05782615 </v>
   <v>       0.25103406       0.69080582       0.06870837 </v>
   <v>       0.25067553       0.30748632       0.31195037 </v>
   <v>       0.49273961       0.69194255       0.31361934 </v>
   <v>       0.49445641       0.30336913       0.06733476 </v>
   <v>       0.75210384       0.68954752       0.05720056 </v>
   <v>       0.74321792       0.29097040       0.31053810 </v>
   <v>      -0.00977780       0.70908995       0.30243424 </v>
   <v>      -0.00284180       0.31692780       0.55928156 </v>
   <v>       0.24761138       0.69502846       0.56264413 </v>
   <v>       0.24754845       0.30714304       0.80848877 </v>
   <v>       0.49428002       0.68898451       0.80785419 </v>
   <v>       0.49517859       0.30428500       0.56340358 </v>
   <v>       0.74507964       0.69299626       0.55843244 </v>
   <v>       0.75039213       0.31144554       0.80849039 </v>
   <v>      -0.00639772       0.69263663       0.80460997 </v>
   <v>       0.24659092       0.33383615       0.06098021 </v>
   <v>       0.00457980       0.65590399       0.05500613 </v>
   <v>       0.49950933       0.35984390       0.30797665 </v>
   <v>       0.25149052       0.64513606       0.30964759 </v>
   <v>       0.74725098       0.32808326       0.05627744 </v>
   <v>       0.50468794       0.70567899       0.05481727 </v>
   <v>      -0.00114429       0.28883015       0.31194604 </v>
   <v>       0.75003415       0.65937182       0.30496399 </v>
   <v>       0.24942111       0.35571564       0.56121571 </v>
   <v>      -0.00102459       0.66810702       0.55723101 </v>
   <v>       0.49683643       0.33886363       0.80796302 </v>
   <v>       0.25358902       0.66365336       0.80783429 </v>
   <v>       0.74888870       0.34540336       0.55997020 </v>
   <v>       0.50064081       0.64197044       0.55848548 </v>
   <v>       0.99652731       0.36491033       0.80695678 </v>
   <v>       0.75253294       0.64266211       0.80524730 </v>
   <v>       0.48003537       0.09212475       0.08017268 </v>
   <v>       0.25981153       0.90220257       0.09541190 </v>
   <v>       0.28374187       0.09837771       0.31715605 </v>
   <v>      -0.03637825       0.91495583       0.29077826 </v>
   <v>      -0.00471710       0.10213576       0.02011562 </v>
   <v>       0.77765231       0.90191224       0.04957578 </v>
   <v>       0.72255065       0.08272280       0.32226852 </v>
   <v>       0.47358185       0.90665407       0.33294336 </v>
   <v>       0.48878602       0.08430604       0.57468313 </v>
   <v>       0.26420223       0.91002240       0.57722558 </v>
   <v>       0.24616594       0.09595707       0.78087024 </v>
   <v>      -0.03272330       0.91202428       0.79204575 </v>
   <v>       0.99350589       0.09683782       0.57558610 </v>
   <v>       0.73298972       0.90897979       0.57936748 </v>
   <v>       0.77054824       0.09125837       0.79662601 </v>
   <v>       0.49695839       0.90948278       0.79465381 </v>
  </varray>
 </structure>
</modeling>
