<?xml version="1.0" encoding="ISO-8859-1"?>
<modeling>
 <generator>
  <i name="program" type="string">vasp </i>
  <i name="version" type="string">5.4.4.18Apr17-6-g9f103f2a35  </i>
  <i name="subversion" type="string">(build Jul 31 2017 11:33:29) complex            parallel </i>
  <i name="platform" type="string">LinuxIFC </i>
  <i name="date" type="string">2021 09 22 </i>
  <i name="time" type="string">03:09:28 </i>
 </generator>
 <incar>
  <i type="string" name="SYSTEM"> La2O2S</i>
  <i type="string" name="PREC">normal</i>
  <i type="int" name="NELMIN">     4</i>
  <i type="int" name="IBRION">     2</i>
  <i type="int" name="NFREE">    10</i>
  <i name="EDIFF">      0.00000100</i>
  <i name="EDIFFG">     -0.01000000</i>
  <i type="int" name="NSW">   200</i>
  <i type="int" name="ISIF">     3</i>
  <i name="ENCUT">    600.00000000</i>
  <i name="ENAUG">    900.00000000</i>
  <i type="int" name="ISMEAR">    -5</i>
  <i type="logical" name="LWAVE"> F  </i>
  <i type="logical" name="LCHARG"> F  </i>
  <v type="int" name="KPOINT_BSE">    -1     0     0     0</v>
 </incar>
 <structure name="primitive_cell" >
  <crystal>
   <varray name="basis" >
    <v>      11.17850000       0.00000000       0.00000000 </v>
    <v>       0.00000000       9.57460000       0.00000000 </v>
    <v>       0.00000000       0.00000000      11.18240000 </v>
   </varray>
   <i name="volume">   1196.84853820 </i>
   <varray name="rec_basis" >
    <v>       0.08945744       0.00000000       0.00000000 </v>
    <v>       0.00000000       0.10444301       0.00000000 </v>
    <v>       0.00000000       0.00000000       0.08942624 </v>
   </varray>
  </crystal>
  <varray name="positions" >
   <v>       0.37461000       0.00017000       0.18687000 </v>
   <v>       0.24987000      -0.07798000       0.06246000 </v>
   <v>       0.49987000       0.07798000       0.06246000 </v>
   <v>       0.25013000       0.07798000       0.31246000 </v>
   <v>      -0.49987000      -0.07798000       0.31246000 </v>
   <v>       0.12461000      -0.00016000       0.18687000 </v>
   <v>      -0.37539000      -0.00016000       0.18687000 </v>
   <v>       0.25013000      -0.29519000       0.06281000 </v>
   <v>      -0.49987000       0.29519000       0.06281000 </v>
   <v>       0.24987000       0.29519000       0.31282000 </v>
   <v>       0.49987000      -0.29519000       0.31282000 </v>
   <v>       0.25005000       0.32677000       0.06286000 </v>
   <v>      -0.49995000      -0.32677000       0.06286000 </v>
   <v>       0.24995000      -0.32677000       0.31286000 </v>
   <v>       0.49995000       0.32677000       0.31286000 </v>
   <v>       0.12539000      -0.00016000      -0.06313000 </v>
   <v>      -0.37461000      -0.00016000       0.43687000 </v>
   <v>      -0.37461000      -0.00016000      -0.06313000 </v>
   <v>       0.25013000       0.07798000      -0.18754000 </v>
   <v>      -0.00013000       0.07798000       0.06246000 </v>
   <v>       0.00013000      -0.07798000       0.31246000 </v>
   <v>      -0.49987000      -0.07798000      -0.18754000 </v>
   <v>      -0.25013000      -0.07798000       0.06246000 </v>
   <v>       0.24987000      -0.07798000      -0.43754000 </v>
   <v>      -0.24987000       0.07798000       0.31246000 </v>
   <v>       0.49987000       0.07798000      -0.43754000 </v>
   <v>       0.24987000       0.29519000      -0.18718000 </v>
   <v>       0.00013000       0.29519000       0.06281000 </v>
   <v>       0.49987000      -0.29519000      -0.18718000 </v>
   <v>      -0.00013000      -0.29519000       0.31282000 </v>
   <v>      -0.24987000      -0.29519000       0.06281000 </v>
   <v>      -0.25013000       0.29519000       0.31282000 </v>
   <v>       0.25013000      -0.29519000      -0.43719000 </v>
   <v>      -0.49987000       0.29519000      -0.43719000 </v>
   <v>       0.24995000      -0.32677000      -0.18714000 </v>
   <v>       0.49995000       0.32677000      -0.18714000 </v>
   <v>       0.00005000      -0.32677000       0.06286000 </v>
   <v>      -0.00005000       0.32677000       0.31286000 </v>
   <v>      -0.24995000       0.32677000       0.06286000 </v>
   <v>      -0.25005000      -0.32677000       0.31286000 </v>
   <v>       0.25005000       0.32677000      -0.43714000 </v>
   <v>      -0.49995000      -0.32677000      -0.43714000 </v>
   <v>      -0.12539000       0.00017000       0.18687000 </v>
   <v>       0.37461000       0.00017000      -0.31313000 </v>
   <v>       0.00013000      -0.07798000      -0.18754000 </v>
   <v>      -0.24987000       0.07798000      -0.18754000 </v>
   <v>      -0.00013000       0.07798000      -0.43754000 </v>
   <v>      -0.25013000      -0.07798000      -0.43754000 </v>
   <v>      -0.12461000       0.00017000      -0.06313000 </v>
   <v>      -0.12461000       0.00017000       0.43687000 </v>
   <v>       0.12461000      -0.00016000      -0.31313000 </v>
   <v>      -0.00013000      -0.29519000      -0.18718000 </v>
   <v>      -0.25013000       0.29519000      -0.18718000 </v>
   <v>       0.00013000       0.29519000      -0.43719000 </v>
   <v>      -0.24987000      -0.29519000      -0.43719000 </v>
   <v>      -0.00005000       0.32677000      -0.18714000 </v>
   <v>      -0.25005000      -0.32677000      -0.18714000 </v>
   <v>       0.00005000      -0.32677000      -0.43714000 </v>
   <v>      -0.24995000       0.32677000      -0.43714000 </v>
  </varray>
 </structure>
 <varray name="primitive_index" >
  <v type="int" >        1 </v>
  <v type="int" >       45 </v>
  <v type="int" >       44 </v>
  <v type="int" >       46 </v>
  <v type="int" >       51 </v>
  <v type="int" >        7 </v>
  <v type="int" >        9 </v>
  <v type="int" >       13 </v>
  <v type="int" >       16 </v>
  <v type="int" >       14 </v>
  <v type="int" >       15 </v>
  <v type="int" >       28 </v>
  <v type="int" >       33 </v>
  <v type="int" >       31 </v>
  <v type="int" >       30 </v>
  <v type="int" >        3 </v>
  <v type="int" >        2 </v>
  <v type="int" >        5 </v>
  <v type="int" >       54 </v>
  <v type="int" >       48 </v>
  <v type="int" >       47 </v>
  <v type="int" >       59 </v>
  <v type="int" >       49 </v>
  <v type="int" >       53 </v>
  <v type="int" >       50 </v>
  <v type="int" >       52 </v>
  <v type="int" >       22 </v>
  <v type="int" >       12 </v>
  <v type="int" >       23 </v>
  <v type="int" >       19 </v>
  <v type="int" >       17 </v>
  <v type="int" >       18 </v>
  <v type="int" >       21 </v>
  <v type="int" >       24 </v>
  <v type="int" >       39 </v>
  <v type="int" >       38 </v>
  <v type="int" >       29 </v>
  <v type="int" >       34 </v>
  <v type="int" >       32 </v>
  <v type="int" >       35 </v>
  <v type="int" >       36 </v>
  <v type="int" >       41 </v>
  <v type="int" >       10 </v>
  <v type="int" >       11 </v>
  <v type="int" >       55 </v>
  <v type="int" >       58 </v>
  <v type="int" >       56 </v>
  <v type="int" >       57 </v>
  <v type="int" >        6 </v>
  <v type="int" >        8 </v>
  <v type="int" >        4 </v>
  <v type="int" >       27 </v>
  <v type="int" >       26 </v>
  <v type="int" >       20 </v>
  <v type="int" >       25 </v>
  <v type="int" >       42 </v>
  <v type="int" >       43 </v>
  <v type="int" >       37 </v>
  <v type="int" >       40 </v>
 </varray>
 <kpoints>
  <generation param="Gamma">
   <v type="int" name="divisions">       2        2        2 </v>
   <v name="usershift">      0.00000000       0.00000000       0.00000000 </v>
   <v name="genvec1">      0.50000000       0.00000000       0.00000000 </v>
   <v name="genvec2">      0.00000000       0.50000000       0.00000000 </v>
   <v name="genvec3">      0.00000000       0.00000000       0.50000000 </v>
   <v name="shift">      0.00000000       0.00000000       0.00000000 </v>
  </generation>
  <varray name="kpointlist" >
   <v>       0.00000000       0.00000000       0.00000000 </v>
   <v>       0.50000000       0.00000000       0.00000000 </v>
   <v>       0.00000000       0.50000000       0.00000000 </v>
   <v>       0.50000000       0.50000000       0.00000000 </v>
   <v>       0.00000000       0.00000000       0.50000000 </v>
   <v>       0.50000000       0.00000000       0.50000000 </v>
   <v>       0.00000000       0.50000000       0.50000000 </v>
   <v>       0.50000000       0.50000000       0.50000000 </v>
  </varray>
  <varray name="weights" >
   <v>       0.12500000 </v>
   <v>       0.12500000 </v>
   <v>       0.12500000 </v>
   <v>       0.12500000 </v>
   <v>       0.12500000 </v>
   <v>       0.12500000 </v>
   <v>       0.12500000 </v>
   <v>       0.12500000 </v>
  </varray>
  <varray name="tetrahedronlist"  type="int" >
   <v type="int" >        2        1        2        4        5 </v>
   <v type="int" >        2        1        3        4        5 </v>
   <v type="int" >        2        3        4        5        7 </v>
   <v type="int" >        2        2        4        5        6 </v>
   <v type="int" >        2        4        5        6        8 </v>
   <v type="int" >        2        4        5        7        8 </v>
   <v type="int" >        2        1        2        3        6 </v>
   <v type="int" >        2        2        3        4        6 </v>
   <v type="int" >        2        3        4        6        8 </v>
   <v type="int" >        2        1        3        5        6 </v>
   <v type="int" >        2        3        5        6        7 </v>
   <v type="int" >        2        3        6        7        8 </v>
   <v type="int" >        2        2        3        4        7 </v>
   <v type="int" >        2        1        2        3        7 </v>
   <v type="int" >        2        1        2        5        7 </v>
   <v type="int" >        2        2        4        7        8 </v>
   <v type="int" >        2        2        6        7        8 </v>
   <v type="int" >        2        2        5        6        7 </v>
   <v type="int" >        2        1        3        4        8 </v>
   <v type="int" >        2        1        2        4        8 </v>
   <v type="int" >        2        1        2        6        8 </v>
   <v type="int" >        2        1        3        7        8 </v>
   <v type="int" >        2        1        5        7        8 </v>
   <v type="int" >        2        1        5        6        8 </v>
  </varray>
  <i name="volumeweight">      0.02083333 </i>
 </kpoints>
 <parameters>
  <separator name="general" >
   <i type="string" name="SYSTEM">La2O2S</i>
   <i type="logical" name="LCOMPAT"> F  </i>
  </separator>
  <separator name="electronic" >
   <i type="string" name="PREC">normal</i>
   <i name="ENMAX">    600.00000000</i>
   <i name="ENAUG">    900.00000000</i>
   <i name="EDIFF">      0.00000100</i>
   <i type="int" name="IALGO">    38</i>
   <i type="int" name="IWAVPR">    11</i>
   <i type="int" name="NBANDS">   280</i>
   <i name="NELECT">    460.00000000</i>
   <i type="int" name="TURBO">     0</i>
   <i type="int" name="IRESTART">     0</i>
   <i type="int" name="NREBOOT">     0</i>
   <i type="int" name="NMIN">     0</i>
   <i name="EREF">      0.00000000</i>
   <separator name="electronic smearing" >
    <i type="int" name="ISMEAR">    -5</i>
    <i name="SIGMA">      0.20000000</i>
    <i name="KSPACING">      0.50000000</i>
    <i type="logical" name="KGAMMA"> T  </i>
   </separator>
   <separator name="electronic projectors" >
    <i type="logical" name="LREAL"> F  </i>
    <v name="ROPT">      0.00000000      0.00000000      0.00000000      0.00000000      0.00000000</v>
    <i type="int" name="LMAXPAW">  -100</i>
    <i type="int" name="LMAXMIX">     2</i>
    <i type="logical" name="NLSPLINE"> F  </i>
   </separator>
   <separator name="electronic startup" >
    <i type="int" name="ISTART">     0</i>
    <i type="int" name="ICHARG">     2</i>
    <i type="int" name="INIWAV">     1</i>
   </separator>
   <separator name="electronic spin" >
    <i type="int" name="ISPIN">     1</i>
    <i type="logical" name="LNONCOLLINEAR"> F  </i>
    <v name="MAGMOM">      1.00000000      1.00000000      1.00000000      1.00000000      1.00000000      1.00000000      1.00000000      1.00000000      1.00000000      1.00000000      1.00000000      1.00000000      1.00000000      1.00000000      1.00000000      1.00000000      1.00000000      1.00000000      1.00000000      1.00000000
      1.00000000      1.00000000      1.00000000      1.00000000      1.00000000      1.00000000      1.00000000      1.00000000      1.00000000      1.00000000      1.00000000      1.00000000      1.00000000      1.00000000      1.00000000      1.00000000      1.00000000      1.00000000      1.00000000      1.00000000
      1.00000000      1.00000000      1.00000000      1.00000000      1.00000000      1.00000000      1.00000000      1.00000000      1.00000000      1.00000000      1.00000000      1.00000000      1.00000000      1.00000000      1.00000000      1.00000000      1.00000000      1.00000000      1.00000000</v>
    <i name="NUPDOWN">     -1.00000000</i>
    <i type="logical" name="LSORBIT"> F  </i>
    <v name="SAXIS">      0.00000000      0.00000000      1.00000000</v>
    <i type="logical" name="LSPIRAL"> F  </i>
    <v name="QSPIRAL">      0.00000000      0.00000000      0.00000000</v>
    <i type="logical" name="LZEROZ"> F  </i>
   </separator>
   <separator name="electronic exchange-correlation" >
    <i type="logical" name="LASPH"> F  </i>
    <i type="logical" name="LMETAGGA"> F  </i>
   </separator>
   <separator name="electronic convergence" >
    <i type="int" name="NELM">    60</i>
    <i type="int" name="NELMDL">    -5</i>
    <i type="int" name="NELMIN">     4</i>
    <i name="ENINI">    600.00000000</i>
    <separator name="electronic convergence detail" >
     <i type="logical" name="LDIAG"> T  </i>
     <i type="logical" name="LSUBROT"> F  </i>
     <i name="WEIMIN">      0.00100000</i>
     <i name="EBREAK">      0.00000000</i>
     <i name="DEPER">      0.30000000</i>
     <i type="int" name="NRMM">     4</i>
     <i name="TIME">      0.40000000</i>
    </separator>
   </separator>
   <separator name="electronic mixer" >
    <i name="AMIX">      0.40000000</i>
    <i name="BMIX">      1.00000000</i>
    <i name="AMIN">      0.10000000</i>
    <i name="AMIX_MAG">      1.60000000</i>
    <i name="BMIX_MAG">      1.00000000</i>
    <separator name="electronic mixer details" >
     <i type="int" name="IMIX">     4</i>
     <i type="logical" name="MIXFIRST"> F  </i>
     <i type="int" name="MAXMIX">   -45</i>
     <i name="WC">    100.00000000</i>
     <i type="int" name="INIMIX">     1</i>
     <i type="int" name="MIXPRE">     1</i>
     <i type="int" name="MREMOVE">     5</i>
    </separator>
   </separator>
   <separator name="electronic dipolcorrection" >
    <i type="logical" name="LDIPOL"> F  </i>
    <i type="logical" name="LMONO"> F  </i>
    <i type="int" name="IDIPOL">     0</i>
    <i name="EPSILON">      1.00000000</i>
    <v name="DIPOL">   -100.00000000   -100.00000000   -100.00000000</v>
    <i name="EFIELD">      0.00000000</i>
   </separator>
  </separator>
  <separator name="grids" >
   <i type="int" name="NGX">    70</i>
   <i type="int" name="NGY">    60</i>
   <i type="int" name="NGZ">    70</i>
   <i type="int" name="NGXF">   140</i>
   <i type="int" name="NGYF">   120</i>
   <i type="int" name="NGZF">   140</i>
   <i type="logical" name="ADDGRID"> F  </i>
  </separator>
  <separator name="ionic" >
   <i type="int" name="NSW">   200</i>
   <i type="int" name="IBRION">     2</i>
   <i type="int" name="MDALGO">     0</i>
   <i type="int" name="ISIF">     3</i>
   <i name="PSTRESS">      0.00000000</i>
   <i name="EDIFFG">     -0.01000000</i>
   <i type="int" name="NFREE">    10</i>
   <i name="POTIM">      0.50000000</i>
   <i name="SMASS">     -3.00000000</i>
   <i name="SCALEE">      1.00000000</i>
  </separator>
  <separator name="ionic md" >
   <i name="TEBEG">      0.00010000</i>
   <i name="TEEND">      0.00010000</i>
   <i type="int" name="NBLOCK">     1</i>
   <i type="int" name="KBLOCK">   200</i>
   <i type="int" name="NPACO">   256</i>
   <i name="APACO">     16.00000000</i>
  </separator>
  <separator name="symmetry" >
   <i type="int" name="ISYM">     2</i>
   <i name="SYMPREC">      0.00001000</i>
  </separator>
  <separator name="dos" >
   <i type="int" name="LORBIT">     0</i>
   <v name="RWIGS">     -1.00000000     -1.00000000     -1.00000000     -1.00000000     -1.00000000</v>
   <i type="int" name="NEDOS">   301</i>
   <i name="EMIN">     10.00000000</i>
   <i name="EMAX">    -10.00000000</i>
   <i name="EFERMI">      0.00000000</i>
  </separator>
  <separator name="writing" >
   <i type="int" name="NWRITE">     2</i>
   <i type="logical" name="LWAVE"> F  </i>
   <i type="logical" name="LDOWNSAMPLE"> F  </i>
   <i type="logical" name="LCHARG"> F  </i>
   <i type="logical" name="LPARD"> F  </i>
   <i type="logical" name="LVTOT"> F  </i>
   <i type="logical" name="LVHAR"> F  </i>
   <i type="logical" name="LELF"> F  </i>
   <i type="logical" name="LOPTICS"> F  </i>
   <v name="STM">      0.00000000      0.00000000      0.00000000      0.00000000      0.00000000      0.00000000      0.00000000</v>
  </separator>
  <separator name="performance" >
   <i type="int" name="NPAR">    28</i>
   <i type="int" name="NSIM">     4</i>
   <i type="int" name="NBLK">    -1</i>
   <i type="logical" name="LPLANE"> T  </i>
   <i type="logical" name="LSCALAPACK"> T  </i>
   <i type="logical" name="LSCAAWARE"> F  </i>
   <i type="logical" name="LSCALU"> F  </i>
   <i type="logical" name="LASYNC"> F  </i>
   <i type="logical" name="LORBITALREAL"> F  </i>
  </separator>
  <separator name="miscellaneous" >
   <i type="int" name="IDIOT">     3</i>
   <i type="int" name="ISPECIAL">     0</i>
   <i type="logical" name="LMUSIC"> F  </i>
   <v name="POMASS">      7.01000000     24.30500000    208.98000000     32.06600000     16.00000000</v>
   <v name="DARWINR">      0.00000000      0.00000000      0.00000000      0.00000000      0.00000000</v>
   <v name="DARWINV">      1.00000000      1.00000000      1.00000000      1.00000000      1.00000000</v>
   <i type="logical" name="LCORR"> T  </i>
  </separator>
  <i type="logical" name="GGA_COMPAT"> T  </i>
  <i type="logical" name="LBERRY"> F  </i>
  <i type="int" name="ICORELEVEL">     0</i>
  <i type="logical" name="LDAU"> F  </i>
  <i type="int" name="I_CONSTRAINED_M">     0</i>
  <separator name="electronic exchange-correlation" >
   <i type="string" name="GGA">--</i>
   <i type="int" name="VOSKOWN">     0</i>
   <i type="logical" name="LHFCALC"> F  </i>
   <i type="string" name="PRECFOCK"></i>
   <i type="logical" name="LSYMGRAD"> F  </i>
   <i type="logical" name="LHFONE"> F  </i>
   <i type="logical" name="LRHFCALC"> F  </i>
   <i type="logical" name="LTHOMAS"> F  </i>
   <i type="logical" name="LMODELHF"> F  </i>
   <i name="ENCUT4O">     -1.00000000</i>
   <i type="int" name="EXXOEP">     0</i>
   <i type="int" name="FOURORBIT">     0</i>
   <i name="AEXX">      0.00000000</i>
   <i name="HFALPHA">      0.00000000</i>
   <i name="MCALPHA">      0.00000000</i>
   <i name="ALDAX">      1.00000000</i>
   <i name="AGGAX">      1.00000000</i>
   <i name="ALDAC">      1.00000000</i>
   <i name="AGGAC">      1.00000000</i>
   <i type="int" name="NKREDX">     1</i>
   <i type="int" name="NKREDY">     1</i>
   <i type="int" name="NKREDZ">     1</i>
   <i type="logical" name="SHIFTRED"> F  </i>
   <i type="logical" name="ODDONLY"> F  </i>
   <i type="logical" name="EVENONLY"> F  </i>
   <i type="int" name="LMAXFOCK">     0</i>
   <i type="int" name="NMAXFOCKAE">     0</i>
   <i type="logical" name="LFOCKAEDFT"> F  </i>
   <i name="HFSCREEN">      0.00000000</i>
   <i name="HFSCREENC">      0.00000000</i>
   <i type="int" name="NBANDSGWLOW">     0</i>
  </separator>
  <separator name="vdW DFT" >
   <i type="logical" name="LUSE_VDW"> F  </i>
   <i name="Zab_VDW">     -0.84910000</i>
   <i name="PARAM1">      0.12340000</i>
   <i name="PARAM2">      1.00000000</i>
   <i name="PARAM3">      0.00000000</i>
  </separator>
  <separator name="model GW" >
   <i type="int" name="MODEL_GW">     0</i>
   <i name="MODEL_EPS0">     12.17134107</i>
   <i name="MODEL_ALPHA">      1.00000000</i>
  </separator>
  <separator name="linear response parameters" >
   <i type="logical" name="LEPSILON"> F  </i>
   <i type="logical" name="LRPA"> F  </i>
   <i type="logical" name="LNABLA"> F  </i>
   <i type="logical" name="LVEL"> F  </i>
   <i type="int" name="KINTER">     0</i>
   <i name="CSHIFT">      0.10000000</i>
   <i name="OMEGAMAX">     -1.00000000</i>
   <i name="DEG_THRESHOLD">      0.00200000</i>
   <i name="RTIME">     -0.10000000</i>
   <i name="WPLASMAI">      0.00000000</i>
   <v name="DFIELD">      0.00000000      0.00000000      0.00000000</v>
   <v name="WPLASMA">      0.00000000      0.00000000      0.00000000      0.00000000      0.00000000      0.00000000      0.00000000      0.00000000      0.00000000</v>
  </separator>
  <separator name="orbital magnetization" >
   <i type="logical" name="NUCIND"> F  </i>
   <v name="MAGPOS">      0.00000000      0.00000000      0.00000000</v>
   <i type="logical" name="LNICSALL"> T  </i>
   <i type="logical" name="ORBITALMAG"> F  </i>
   <i type="logical" name="LMAGBLOCH"> F  </i>
   <i type="logical" name="LCHIMAG"> F  </i>
   <i type="logical" name="LGAUGE"> T  </i>
   <i type="int" name="MAGATOM">     0</i>
   <v name="MAGDIPOL">      0.00000000      0.00000000      0.00000000</v>
   <v name="AVECCONST">      0.00000000      0.00000000      0.00000000</v>
  </separator>
  <separator name="response functions" >
   <i type="logical" name="LADDER"> F  </i>
   <i type="logical" name="LRPAFORCE"> F  </i>
   <i type="logical" name="LFXC"> F  </i>
   <i type="logical" name="LHARTREE"> T  </i>
   <i type="int" name="IBSE">     0</i>
   <v type="int" name="KPOINT">    -1     0     0     0</v>
   <i type="logical" name="LTCTE"> F  </i>
   <i type="logical" name="LTETE"> F  </i>
   <i type="logical" name="LTRIPLET"> F  </i>
   <i type="logical" name="LFXCEPS"> F  </i>
   <i type="logical" name="LFXHEG"> F  </i>
   <i type="int" name="NATURALO">     2</i>
   <i type="logical" name="L2ORDER"> F  </i>
   <i type="logical" name="LMP2LT"> F  </i>
   <i type="logical" name="LUSEW"> F  </i>
   <i name="ENCUTGW">     -2.00000000</i>
   <i name="ENCUTGWSOFT">     -2.00000000</i>
   <i name="ENCUTLF">     -1.00000000</i>
   <i type="int" name="LMAXMP2">    -1</i>
   <i name="SCISSOR">      0.00000000</i>
   <i type="int" name="NOMEGA">     0</i>
   <i type="int" name="NOMEGAR">     0</i>
   <i type="int" name="NBANDSGW">    -1</i>
   <i type="int" name="NBANDSO">    -1</i>
   <i type="int" name="NBANDSV">    -1</i>
   <i type="int" name="NELM">     1</i>
   <i type="int" name="NELMHF">     1</i>
   <i type="int" name="DIM">     3</i>
   <i type="int" name="ANTIRES">     0</i>
   <i name="OMEGAMAX">    -30.00000000</i>
   <i name="OMEGAMIN">    -30.00000000</i>
   <i name="OMEGATL">   -200.00000000</i>
   <i type="int" name="OMEGAGRID">   140</i>
   <i name="CSHIFT">     -0.10000000</i>
   <i type="logical" name="SELFENERGY"> F  </i>
   <i type="logical" name="LSPECTRAL"> F  </i>
   <i type="logical" name="LSPECTRALGW"> F  </i>
   <i type="logical" name="LSINGLES"> F  </i>
   <i type="logical" name="LFERMIGW"> F  </i>
   <i type="logical" name="ODDONLYGW"> F  </i>
   <i type="logical" name="EVENONLYGW"> F  </i>
   <i type="int" name="NKREDLFX">     1</i>
   <i type="int" name="NKREDLFY">     1</i>
   <i type="int" name="NKREDLFZ">     1</i>
   <i type="int" name="MAXMEM">  2800</i>
   <i type="int" name="TELESCOPE">     0</i>
   <i type="int" name="TAUPAR">     1</i>
   <i type="int" name="OMEGAPAR">    -1</i>
   <i name="LAMBDA">      1.00000000</i>
  </separator>
  <separator name="External order field" >
   <i name="OFIELD_KAPPA">      0.00000000</i>
   <v name="OFIELD_K">      0.00000000      0.00000000      0.00000000</v>
   <i name="OFIELD_Q6_NEAR">      0.00000000</i>
   <i name="OFIELD_Q6_FAR">      0.00000000</i>
   <i name="OFIELD_A">      0.00000000</i>
  </separator>
 </parameters>
 <atominfo>
  <atoms>      59 </atoms>
  <types>       5 </types>
  <array name="atoms" >
   <dimension dim="1">ion</dimension>
   <field type="string">element</field>
   <field type="int">atomtype</field>
   <set>
    <rc><c>Li</c><c>   1</c></rc>
    <rc><c>Li</c><c>   1</c></rc>
    <rc><c>Li</c><c>   1</c></rc>
    <rc><c>Li</c><c>   1</c></rc>
    <rc><c>Li</c><c>   1</c></rc>
    <rc><c>Li</c><c>   1</c></rc>
    <rc><c>Mg</c><c>   2</c></rc>
    <rc><c>Mg</c><c>   2</c></rc>
    <rc><c>Mg</c><c>   2</c></rc>
    <rc><c>Mg</c><c>   2</c></rc>
    <rc><c>Mg</c><c>   2</c></rc>
    <rc><c>Bi</c><c>   3</c></rc>
    <rc><c>Bi</c><c>   3</c></rc>
    <rc><c>Bi</c><c>   3</c></rc>
    <rc><c>Bi</c><c>   3</c></rc>
    <rc><c>Bi</c><c>   3</c></rc>
    <rc><c>Bi</c><c>   3</c></rc>
    <rc><c>Bi</c><c>   3</c></rc>
    <rc><c>Bi</c><c>   3</c></rc>
    <rc><c>Bi</c><c>   3</c></rc>
    <rc><c>Bi</c><c>   3</c></rc>
    <rc><c>Bi</c><c>   3</c></rc>
    <rc><c>Bi</c><c>   3</c></rc>
    <rc><c>Bi</c><c>   3</c></rc>
    <rc><c>Bi</c><c>   3</c></rc>
    <rc><c>Bi</c><c>   3</c></rc>
    <rc><c>Bi</c><c>   3</c></rc>
    <rc><c>S </c><c>   4</c></rc>
    <rc><c>S </c><c>   4</c></rc>
    <rc><c>S </c><c>   4</c></rc>
    <rc><c>S </c><c>   4</c></rc>
    <rc><c>S </c><c>   4</c></rc>
    <rc><c>S </c><c>   4</c></rc>
    <rc><c>S </c><c>   4</c></rc>
    <rc><c>S </c><c>   4</c></rc>
    <rc><c>S </c><c>   4</c></rc>
    <rc><c>S </c><c>   4</c></rc>
    <rc><c>S </c><c>   4</c></rc>
    <rc><c>S </c><c>   4</c></rc>
    <rc><c>S </c><c>   4</c></rc>
    <rc><c>S </c><c>   4</c></rc>
    <rc><c>S </c><c>   4</c></rc>
    <rc><c>S </c><c>   4</c></rc>
    <rc><c>O </c><c>   5</c></rc>
    <rc><c>O </c><c>   5</c></rc>
    <rc><c>O </c><c>   5</c></rc>
    <rc><c>O </c><c>   5</c></rc>
    <rc><c>O </c><c>   5</c></rc>
    <rc><c>O </c><c>   5</c></rc>
    <rc><c>O </c><c>   5</c></rc>
    <rc><c>O </c><c>   5</c></rc>
    <rc><c>O </c><c>   5</c></rc>
    <rc><c>O </c><c>   5</c></rc>
    <rc><c>O </c><c>   5</c></rc>
    <rc><c>O </c><c>   5</c></rc>
    <rc><c>O </c><c>   5</c></rc>
    <rc><c>O </c><c>   5</c></rc>
    <rc><c>O </c><c>   5</c></rc>
    <rc><c>O </c><c>   5</c></rc>
   </set>
  </array>
  <array name="atomtypes" >
   <dimension dim="1">type</dimension>
   <field type="int">atomspertype</field>
   <field type="string">element</field>
   <field>mass</field>
   <field>valence</field>
   <field type="string">pseudopotential</field>
   <set>
    <rc><c>   6</c><c>Li</c><c>      7.01000000</c><c>      3.00000000</c><c>  PAW_PBE Li_sv 10Sep2004               </c></rc>
    <rc><c>   5</c><c>Mg</c><c>     24.30500000</c><c>      2.00000000</c><c>  PAW_PBE Mg 13Apr2007                  </c></rc>
    <rc><c>  16</c><c>Bi</c><c>    208.98000000</c><c>     15.00000000</c><c>  PAW_PBE Bi_d 06Sep2000                </c></rc>
    <rc><c>  16</c><c>S </c><c>     32.06600000</c><c>      6.00000000</c><c>  PAW_PBE S 06Sep2000                   </c></rc>
    <rc><c>  16</c><c>O </c><c>     16.00000000</c><c>      6.00000000</c><c>  PAW_PBE O 08Apr2002                   </c></rc>
   </set>
  </array>
 </atominfo>
 <structure name="initialpos" >
  <crystal>
   <varray name="basis" >
    <v>      11.17850000       0.00000000       0.00000000 </v>
    <v>       0.00000000       9.57460000       0.00000000 </v>
    <v>       0.00000000       0.00000000      11.18240000 </v>
   </varray>
   <i name="volume">   1196.84853820 </i>
   <varray name="rec_basis" >
    <v>       0.08945744       0.00000000       0.00000000 </v>
    <v>       0.00000000       0.10444301       0.00000000 </v>
    <v>       0.00000000       0.00000000       0.08942624 </v>
   </varray>
  </crystal>
  <varray name="positions" >
   <v>       0.37461000       0.00017000       0.18687000 </v>
   <v>       0.62539000       0.99984000       0.43687000 </v>
   <v>       0.12539000       0.99984000       0.93687000 </v>
   <v>       0.12461000       0.99984000       0.68687000 </v>
   <v>       0.62539000       0.99984000       0.93687000 </v>
   <v>       0.87539000       0.00017000       0.93687000 </v>
   <v>       0.12461000       0.99984000       0.18687000 </v>
   <v>       0.87539000       0.00017000       0.43687000 </v>
   <v>       0.62461000       0.99984000       0.18687000 </v>
   <v>       0.87461000       0.00017000       0.18687000 </v>
   <v>       0.37461000       0.00017000       0.68687000 </v>
   <v>       0.00013000       0.29519000       0.06281000 </v>
   <v>       0.25013000       0.70481000       0.06281000 </v>
   <v>       0.24987000       0.29519000       0.31282000 </v>
   <v>       0.49987000       0.70481000       0.31282000 </v>
   <v>       0.50013000       0.29519000       0.06281000 </v>
   <v>       0.75013000       0.70481000       0.06281000 </v>
   <v>       0.74987000       0.29519000       0.31282000 </v>
   <v>       0.99987000       0.70481000       0.31282000 </v>
   <v>       0.00013000       0.29519000       0.56281000 </v>
   <v>       0.25013000       0.70481000       0.56281000 </v>
   <v>       0.24987000       0.29519000       0.81282000 </v>
   <v>       0.49987000       0.70481000       0.81282000 </v>
   <v>       0.50013000       0.29519000       0.56281000 </v>
   <v>       0.75013000       0.70481000       0.56281000 </v>
   <v>       0.74987000       0.29519000       0.81282000 </v>
   <v>       0.99987000       0.70481000       0.81282000 </v>
   <v>       0.25005000       0.32677000       0.06286000 </v>
   <v>       0.00005000       0.67323000       0.06286000 </v>
   <v>       0.49995000       0.32677000       0.31286000 </v>
   <v>       0.24995000       0.67323000       0.31286000 </v>
   <v>       0.75005000       0.32677000       0.06286000 </v>
   <v>       0.50005000       0.67323000       0.06286000 </v>
   <v>       0.99995000       0.32677000       0.31286000 </v>
   <v>       0.74995000       0.67323000       0.31286000 </v>
   <v>       0.25005000       0.32677000       0.56286000 </v>
   <v>       0.00005000       0.67323000       0.56286000 </v>
   <v>       0.49995000       0.32677000       0.81286000 </v>
   <v>       0.24995000       0.67323000       0.81286000 </v>
   <v>       0.75005000       0.32677000       0.56286000 </v>
   <v>       0.50005000       0.67323000       0.56286000 </v>
   <v>       0.99995000       0.32677000       0.81286000 </v>
   <v>       0.74995000       0.67323000       0.81286000 </v>
   <v>       0.49987000       0.07798000       0.06246000 </v>
   <v>       0.24987000       0.92202000       0.06246000 </v>
   <v>       0.25013000       0.07798000       0.31246000 </v>
   <v>       0.00013000       0.92202000       0.31246000 </v>
   <v>       0.99987000       0.07798000       0.06246000 </v>
   <v>       0.74987000       0.92202000       0.06246000 </v>
   <v>       0.75013000       0.07798000       0.31246000 </v>
   <v>       0.50013000       0.92202000       0.31246000 </v>
   <v>       0.49987000       0.07798000       0.56246000 </v>
   <v>       0.24987000       0.92202000       0.56246000 </v>
   <v>       0.25013000       0.07798000       0.81246000 </v>
   <v>       0.00013000       0.92202000       0.81246000 </v>
   <v>       0.99987000       0.07798000       0.56246000 </v>
   <v>       0.74987000       0.92202000       0.56246000 </v>
   <v>       0.75013000       0.07798000       0.81246000 </v>
   <v>       0.50013000       0.92202000       0.81246000 </v>
  </varray>
 </structure>
 <calculation>
  <scstep>
   <time name="dav">   60.37   60.47</time>
   <time name="total">   60.45   60.57</time>
   <energy>
    <i name="alphaZ">   1060.66890660 </i>
    <i name="ewald"> -30416.43846582 </i>
    <i name="hartreedc"> -12701.10779183 </i>
    <i name="XCdc">   1247.31363870 </i>
    <i name="pawpsdc">  36635.26894311 </i>
    <i name="pawaedc"> -35972.74895369 </i>
    <i name="eentropy">      0.00000000 </i>
    <i name="bandstr">   1868.36198171 </i>
    <i name="atom">  44026.03258983 </i>
    <i name="e_fr_energy">   5747.35084860 </i>
    <i name="e_wo_entrp">   5747.35084860 </i>
    <i name="e_0_energy">   5747.35084860 </i>
   </energy>
  </scstep>
  <scstep>
   <time name="dav">   61.40   61.44</time>
   <time name="total">   61.42   61.45</time>
   <energy>
    <i name="e_fr_energy">    753.12954098 </i>
    <i name="e_wo_entrp">    753.12954098 </i>
    <i name="e_0_energy">    753.12954098 </i>
   </energy>
  </scstep>
  <scstep>
   <time name="dav">   69.76   69.81</time>
   <time name="total">   69.76   69.81</time>
   <energy>
    <i name="e_fr_energy">   -242.74919028 </i>
    <i name="e_wo_entrp">   -242.74919028 </i>
    <i name="e_0_energy">   -242.74919028 </i>
   </energy>
  </scstep>
  <scstep>
   <time name="dav">   71.69   72.11</time>
   <time name="total">   71.69   72.12</time>
   <energy>
    <i name="e_fr_energy">   -334.70951859 </i>
    <i name="e_wo_entrp">   -334.70951859 </i>
    <i name="e_0_energy">   -334.70951859 </i>
   </energy>
  </scstep>
  <scstep>
   <time name="dav">   94.61   94.79</time>
   <time name="total">   95.33   95.51</time>
   <energy>
    <i name="e_fr_energy">   -341.55685541 </i>
    <i name="e_wo_entrp">   -341.55685541 </i>
    <i name="e_0_energy">   -341.55685541 </i>
   </energy>
  </scstep>
  <scstep>
   <time name="dav">   85.13   85.68</time>
   <time name="total">   85.92   86.48</time>
   <energy>
    <i name="e_fr_energy">   -285.50340783 </i>
    <i name="e_wo_entrp">   -285.50340783 </i>
    <i name="e_0_energy">   -285.50340783 </i>
   </energy>
  </scstep>
  <scstep>
   <time name="dav">   64.65   65.27</time>
   <time name="total">   65.43   66.05</time>
   <energy>
    <i name="e_fr_energy">   -287.44087990 </i>
    <i name="e_wo_entrp">   -287.44087990 </i>
    <i name="e_0_energy">   -287.44087990 </i>
   </energy>
  </scstep>
  <scstep>
   <time name="dav">   75.75   76.21</time>
   <time name="total">   76.53   77.05</time>
   <energy>
    <i name="e_fr_energy">   -286.32704156 </i>
    <i name="e_wo_entrp">   -286.32704156 </i>
    <i name="e_0_energy">   -286.32704156 </i>
   </energy>
  </scstep>
  <scstep>
   <time name="dav">   75.79   76.54</time>
   <time name="total">   76.58   77.35</time>
   <energy>
    <i name="e_fr_energy">   -285.78752092 </i>
    <i name="e_wo_entrp">   -285.78752092 </i>
    <i name="e_0_energy">   -285.78752092 </i>
   </energy>
  </scstep>
  <scstep>
   <time name="dav">   71.64   72.14</time>
   <time name="total">   72.41   72.92</time>
   <energy>
    <i name="e_fr_energy">   -285.81984568 </i>
    <i name="e_wo_entrp">   -285.81984568 </i>
    <i name="e_0_energy">   -285.81984568 </i>
   </energy>
  </scstep>
  <scstep>
   <time name="dav">   84.93   85.81</time>
   <time name="total">   85.80   86.69</time>
   <energy>
    <i name="e_fr_energy">   -285.82329151 </i>
    <i name="e_wo_entrp">   -285.82329151 </i>
    <i name="e_0_energy">   -285.82329151 </i>
   </energy>
  </scstep>
  <scstep>
   <time name="dav">   76.24   76.51</time>
   <time name="total">   77.01   77.30</time>
   <energy>
    <i name="e_fr_energy">   -285.82624335 </i>
    <i name="e_wo_entrp">   -285.82624335 </i>
    <i name="e_0_energy">   -285.82624335 </i>
   </energy>
  </scstep>
  <scstep>
   <time name="dav">   76.81   77.17</time>
   <time name="total">   77.59   77.95</time>
   <energy>
    <i name="e_fr_energy">   -285.82703364 </i>
    <i name="e_wo_entrp">   -285.82703364 </i>
    <i name="e_0_energy">   -285.82703364 </i>
   </energy>
  </scstep>
  <scstep>
   <time name="dav">   76.91   77.35</time>
   <time name="total">   77.69   78.14</time>
   <energy>
    <i name="e_fr_energy">   -285.82719710 </i>
    <i name="e_wo_entrp">   -285.82719710 </i>
    <i name="e_0_energy">   -285.82719710 </i>
   </energy>
  </scstep>
  <scstep>
   <time name="dav">   71.83   72.10</time>
   <time name="total">   72.61   72.89</time>
   <energy>
    <i name="e_fr_energy">   -285.82723872 </i>
    <i name="e_wo_entrp">   -285.82723872 </i>
    <i name="e_0_energy">   -285.82723872 </i>
   </energy>
  </scstep>
  <scstep>
   <time name="dav">   76.47   76.89</time>
   <time name="total">   77.25   77.68</time>
   <energy>
    <i name="e_fr_energy">   -285.82727449 </i>
    <i name="e_wo_entrp">   -285.82727449 </i>
    <i name="e_0_energy">   -285.82727449 </i>
   </energy>
  </scstep>
  <scstep>
   <time name="dav">   74.19   74.49</time>
   <time name="total">   74.97   75.27</time>
   <energy>
    <i name="e_fr_energy">   -285.82727805 </i>
    <i name="e_wo_entrp">   -285.82727805 </i>
    <i name="e_0_energy">   -285.82727805 </i>
   </energy>
  </scstep>
  <scstep>
   <time name="dav">   59.86   60.06</time>
   <time name="total">   59.93   60.13</time>
   <energy>
    <i name="alphaZ">   1060.66890660 </i>
    <i name="ewald"> -30416.43846582 </i>
    <i name="hartreedc"> -12927.33320128 </i>
    <i name="XCdc">   1271.46856805 </i>
    <i name="pawpsdc">  43640.25460258 </i>
    <i name="pawaedc"> -42951.46579664 </i>
    <i name="eentropy">      0.00000000 </i>
    <i name="bandstr">  -3989.01448215 </i>
    <i name="atom">  44026.03258983 </i>
    <i name="e_fr_energy">   -285.82727885 </i>
    <i name="e_wo_entrp">   -285.82727885 </i>
    <i name="e_0_energy">   -285.82727885 </i>
   </energy>
  </scstep>
  <structure>
   <crystal>
    <varray name="basis" >
     <v>      11.17850000       0.00000000       0.00000000 </v>
     <v>       0.00000000       9.57460000       0.00000000 </v>
     <v>       0.00000000       0.00000000      11.18240000 </v>
    </varray>
    <i name="volume">   1196.84853820 </i>
    <varray name="rec_basis" >
     <v>       0.08945744       0.00000000       0.00000000 </v>
     <v>       0.00000000       0.10444301       0.00000000 </v>
     <v>       0.00000000       0.00000000       0.08942624 </v>
    </varray>
   </crystal>
   <varray name="positions" >
    <v>       0.37461000       0.00017000       0.18687000 </v>
    <v>       0.62539000       0.99984000       0.43687000 </v>
    <v>       0.12539000       0.99984000       0.93687000 </v>
    <v>       0.12461000       0.99984000       0.68687000 </v>
    <v>       0.62539000       0.99984000       0.93687000 </v>
    <v>       0.87539000       0.00017000       0.93687000 </v>
    <v>       0.12461000       0.99984000       0.18687000 </v>
    <v>       0.87539000       0.00017000       0.43687000 </v>
    <v>       0.62461000       0.99984000       0.18687000 </v>
    <v>       0.87461000       0.00017000       0.18687000 </v>
    <v>       0.37461000       0.00017000       0.68687000 </v>
    <v>       0.00013000       0.29519000       0.06281000 </v>
    <v>       0.25013000       0.70481000       0.06281000 </v>
    <v>       0.24987000       0.29519000       0.31282000 </v>
    <v>       0.49987000       0.70481000       0.31282000 </v>
    <v>       0.50013000       0.29519000       0.06281000 </v>
    <v>       0.75013000       0.70481000       0.06281000 </v>
    <v>       0.74987000       0.29519000       0.31282000 </v>
    <v>       0.99987000       0.70481000       0.31282000 </v>
    <v>       0.00013000       0.29519000       0.56281000 </v>
    <v>       0.25013000       0.70481000       0.56281000 </v>
    <v>       0.24987000       0.29519000       0.81282000 </v>
    <v>       0.49987000       0.70481000       0.81282000 </v>
    <v>       0.50013000       0.29519000       0.56281000 </v>
    <v>       0.75013000       0.70481000       0.56281000 </v>
    <v>       0.74987000       0.29519000       0.81282000 </v>
    <v>       0.99987000       0.70481000       0.81282000 </v>
    <v>       0.25005000       0.32677000       0.06286000 </v>
    <v>       0.00005000       0.67323000       0.06286000 </v>
    <v>       0.49995000       0.32677000       0.31286000 </v>
    <v>       0.24995000       0.67323000       0.31286000 </v>
    <v>       0.75005000       0.32677000       0.06286000 </v>
    <v>       0.50005000       0.67323000       0.06286000 </v>
    <v>       0.99995000       0.32677000       0.31286000 </v>
    <v>       0.74995000       0.67323000       0.31286000 </v>
    <v>       0.25005000       0.32677000       0.56286000 </v>
    <v>       0.00005000       0.67323000       0.56286000 </v>
    <v>       0.49995000       0.32677000       0.81286000 </v>
    <v>       0.24995000       0.67323000       0.81286000 </v>
    <v>       0.75005000       0.32677000       0.56286000 </v>
    <v>       0.50005000       0.67323000       0.56286000 </v>
    <v>       0.99995000       0.32677000       0.81286000 </v>
    <v>       0.74995000       0.67323000       0.81286000 </v>
    <v>       0.49987000       0.07798000       0.06246000 </v>
    <v>       0.24987000       0.92202000       0.06246000 </v>
    <v>       0.25013000       0.07798000       0.31246000 </v>
    <v>       0.00013000       0.92202000       0.31246000 </v>
    <v>       0.99987000       0.07798000       0.06246000 </v>
    <v>       0.74987000       0.92202000       0.06246000 </v>
    <v>       0.75013000       0.07798000       0.31246000 </v>
    <v>       0.50013000       0.92202000       0.31246000 </v>
    <v>       0.49987000       0.07798000       0.56246000 </v>
    <v>       0.24987000       0.92202000       0.56246000 </v>
    <v>       0.25013000       0.07798000       0.81246000 </v>
    <v>       0.00013000       0.92202000       0.81246000 </v>
    <v>       0.99987000       0.07798000       0.56246000 </v>
    <v>       0.74987000       0.92202000       0.56246000 </v>
    <v>       0.75013000       0.07798000       0.81246000 </v>
    <v>       0.50013000       0.92202000       0.81246000 </v>
   </varray>
  </structure>
  <varray name="forces" >
   <v>      -0.16750033       0.06767821       0.16201094 </v>
   <v>      -0.91955203      -0.18721703       1.31511406 </v>
   <v>       0.44032608      -0.18881517      -0.80536013 </v>
   <v>      -0.46075705      -0.05878335      -0.39871781 </v>
   <v>      -0.45659769       0.19487972      -1.29067470 </v>
   <v>      -0.15163128       0.05440480      -1.45712915 </v>
   <v>       1.82494498       0.12351320       0.83478022 </v>
   <v>       0.77802054      -0.09887100       2.90577035 </v>
   <v>      -1.79273736      -0.09106907      -0.16079163 </v>
   <v>       0.25497392      -0.09214137      -0.73829010 </v>
   <v>       0.76523457      -0.10718309      -0.16934822 </v>
   <v>       0.25911952       2.15827072      -0.70231114 </v>
   <v>       0.40854485      -0.12458244      -0.48023671 </v>
   <v>       0.30096030      -0.89548942       0.62453820 </v>
   <v>      -0.50687310      -0.15895333       0.54807076 </v>
   <v>      -0.41393701       0.14261853      -0.55856866 </v>
   <v>      -0.27466948      -2.19273430      -0.79425725 </v>
   <v>      -0.38548231       3.08749310       0.58642384 </v>
   <v>       0.60251331      -2.11427197       0.70859277 </v>
   <v>       0.19488599      -0.97446370       0.47336609 </v>
   <v>       0.06722793       1.03706918      -0.06048242 </v>
   <v>       0.18623903      -0.05510898      -0.12658820 </v>
   <v>       0.01497486       1.10564027      -0.24622673 </v>
   <v>      -0.07402278      -1.08148578       0.23904354 </v>
   <v>      -0.21736320       0.88137517       0.77989421 </v>
   <v>      -0.11568106      -1.85245652      -0.58161918 </v>
   <v>      -0.04725815       0.92420703      -0.49741163 </v>
   <v>      -0.30325475       0.11212967       0.08188969 </v>
   <v>      -0.22540996       0.05546176       0.44156506 </v>
   <v>       0.44669166       0.08502499      -0.28835066 </v>
   <v>      -0.27889014      -0.07813090      -0.29868718 </v>
   <v>       0.21912171      -0.05937877       0.59674180 </v>
   <v>       0.31124731      -0.07892324       0.28946156 </v>
   <v>      -0.40682484      -0.12422565      -0.42204600 </v>
   <v>       0.24826325       0.10114955      -0.40800665 </v>
   <v>      -0.04510865       0.22821389      -0.00342832 </v>
   <v>      -0.12891066      -0.15366193      -0.48815926 </v>
   <v>      -0.16528054       0.22424761       0.25003733 </v>
   <v>      -0.06652794      -0.27455567       0.23171618 </v>
   <v>       0.11734815       0.11037213      -0.69186593 </v>
   <v>       0.05389246      -0.23406721      -0.25811257 </v>
   <v>       0.13448411       0.19971313       0.47286833 </v>
   <v>       0.08851299      -0.16029217       0.49542035 </v>
   <v>       1.34073324      -0.23269225       1.25785339 </v>
   <v>      -1.32980862       0.17033699       1.10682021 </v>
   <v>      -0.70923368       0.58077547      -1.81102558 </v>
   <v>      -1.44492044       1.78989659      -1.43718949 </v>
   <v>      -0.30674480      -1.79989757       1.29943912 </v>
   <v>       0.29044664       1.83112787       1.46171352 </v>
   <v>       0.68713735      -2.41841642      -0.90371770 </v>
   <v>       1.46312853       0.25717970      -1.25071680 </v>
   <v>      -0.33574404       1.09356642       0.25175349 </v>
   <v>       0.35674230      -0.90805699       1.52893074 </v>
   <v>      -0.25578802       0.22379736      -0.84739522 </v>
   <v>       0.57709545      -0.74947231       0.98641803 </v>
   <v>      -0.60656356       0.90333670      -0.86077859 </v>
   <v>       0.53951007      -0.56069635      -2.13487507 </v>
   <v>       0.08420917       1.45155844       1.50862895 </v>
   <v>      -0.46345676      -1.08894427      -0.26649404 </v>
  </varray>
  <varray name="stress" >
   <v>       2.21747499      -0.53302435      -0.99260190 </v>
   <v>      -0.53302441     -12.87295224      -0.11067410 </v>
   <v>      -0.99260196      -0.11067438      -7.27385821 </v>
  </varray>
  <energy>
   <i name="e_fr_energy">   -298.42970338 </i>
   <i name="e_wo_entrp">   -298.42970338 </i>
   <i name="e_0_energy">      0.00000000 </i>
  </energy>
  <time name="totalsc"> 1456.89 1464.72</time>
 </calculation>
 <calculation>
  <scstep>
   <time name="dav">   61.98   62.33</time>
   <time name="total">   62.76   63.11</time>
   <energy>
    <i name="alphaZ">   1072.39405535 </i>
    <i name="ewald"> -30500.27355346 </i>
    <i name="hartreedc"> -12983.82740795 </i>
    <i name="XCdc">   1278.02138900 </i>
    <i name="pawpsdc">  43639.17677689 </i>
    <i name="pawaedc"> -42950.38720906 </i>
    <i name="eentropy">      0.00000000 </i>
    <i name="bandstr">  -3865.73230283 </i>
    <i name="atom">  44026.03258983 </i>
    <i name="e_fr_energy">   -284.59566224 </i>
    <i name="e_wo_entrp">   -284.59566224 </i>
    <i name="e_0_energy">   -284.59566224 </i>
   </energy>
  </scstep>
  <scstep>
   <time name="dav">   66.72   67.06</time>
   <time name="total">   67.49   67.84</time>
   <energy>
    <i name="e_fr_energy">   -289.07903423 </i>
    <i name="e_wo_entrp">   -289.07903423 </i>
    <i name="e_0_energy">   -289.07903423 </i>
   </energy>
  </scstep>
  <scstep>
   <time name="dav">   85.49   86.20</time>
   <time name="total">   86.27   86.99</time>
   <energy>
    <i name="e_fr_energy">   -288.87643135 </i>
    <i name="e_wo_entrp">   -288.87643135 </i>
    <i name="e_0_energy">   -288.87643135 </i>
   </energy>
  </scstep>
  <scstep>
   <time name="dav">   70.43   71.38</time>
   <time name="total">   71.21   72.17</time>
   <energy>
    <i name="e_fr_energy">   -288.69935268 </i>
    <i name="e_wo_entrp">   -288.69935268 </i>
    <i name="e_0_energy">   -288.69935268 </i>
   </energy>
  </scstep>
  <scstep>
   <time name="dav">   74.14   74.92</time>
   <time name="total">   74.91   75.70</time>
   <energy>
    <i name="e_fr_energy">   -288.66582279 </i>
    <i name="e_wo_entrp">   -288.66582279 </i>
    <i name="e_0_energy">   -288.66582279 </i>
   </energy>
  </scstep>
  <scstep>
   <time name="dav">   75.64   75.83</time>
   <time name="total">   76.41   76.61</time>
   <energy>
    <i name="e_fr_energy">   -288.66598748 </i>
    <i name="e_wo_entrp">   -288.66598748 </i>
    <i name="e_0_energy">   -288.66598748 </i>
   </energy>
  </scstep>
  <scstep>
   <time name="dav">   72.08   72.14</time>
   <time name="total">   72.86   72.93</time>
   <energy>
    <i name="e_fr_energy">   -288.66466334 </i>
    <i name="e_wo_entrp">   -288.66466334 </i>
    <i name="e_0_energy">   -288.66466334 </i>
   </energy>
  </scstep>
  <scstep>
   <time name="dav">   75.29   75.35</time>
   <time name="total">   76.08   76.15</time>
   <energy>
    <i name="e_fr_energy">   -288.66406183 </i>
    <i name="e_wo_entrp">   -288.66406183 </i>
    <i name="e_0_energy">   -288.66406183 </i>
   </energy>
  </scstep>
  <scstep>
   <time name="dav">   83.37   83.50</time>
   <time name="total">   84.15   84.28</time>
   <energy>
    <i name="e_fr_energy">   -288.66408665 </i>
    <i name="e_wo_entrp">   -288.66408665 </i>
    <i name="e_0_energy">   -288.66408665 </i>
   </energy>
  </scstep>
  <scstep>
   <time name="dav">   72.08   72.26</time>
   <time name="total">   72.94   73.13</time>
   <energy>
    <i name="e_fr_energy">   -288.66409597 </i>
    <i name="e_wo_entrp">   -288.66409597 </i>
    <i name="e_0_energy">   -288.66409597 </i>
   </energy>
  </scstep>
  <scstep>
   <time name="dav">   77.44   77.55</time>
   <time name="total">   78.21   78.34</time>
   <energy>
    <i name="e_fr_energy">   -288.66409873 </i>
    <i name="e_wo_entrp">   -288.66409873 </i>
    <i name="e_0_energy">   -288.66409873 </i>
   </energy>
  </scstep>
  <scstep>
   <time name="dav">   74.73   74.82</time>
   <time name="total">   74.80   74.89</time>
   <energy>
    <i name="alphaZ">   1072.39405535 </i>
    <i name="ewald"> -30500.27355346 </i>
    <i name="hartreedc"> -12897.20902095 </i>
    <i name="XCdc">   1274.52807635 </i>
    <i name="pawpsdc">  43987.16590379 </i>
    <i name="pawaedc"> -43301.33417648 </i>
    <i name="eentropy">      0.00000000 </i>
    <i name="bandstr">  -3949.96797320 </i>
    <i name="atom">  44026.03258983 </i>
    <i name="e_fr_energy">   -288.66409878 </i>
    <i name="e_wo_entrp">   -288.66409878 </i>
    <i name="e_0_energy">   -288.66409878 </i>
   </energy>
  </scstep>
  <structure>
   <crystal>
    <varray name="basis" >
     <v>      11.19364084      -0.00363947      -0.00677745 </v>
     <v>      -0.00311728       9.49931532      -0.00064725 </v>
     <v>      -0.00677982      -0.00075594      11.13271702 </v>
    </varray>
    <i name="volume">   1183.76265146 </i>
    <varray name="rec_basis" >
     <v>       0.08933648       0.00002932       0.00005441 </v>
     <v>       0.00003423       0.10527076       0.00000717 </v>
     <v>       0.00005439       0.00000614       0.08982537 </v>
    </varray>
   </crystal>
   <varray name="positions" >
    <v>       0.37388712       0.00051100       0.18756894 </v>
    <v>       0.62142152       0.99889669       0.44254361 </v>
    <v>       0.12729030       0.99888863       0.93339555 </v>
    <v>       0.12262153       0.99954381       0.68514987 </v>
    <v>       0.62341948       0.00082192       0.93130182 </v>
    <v>       0.87473561       0.00044412       0.93058371 </v>
    <v>       0.13248585       0.00046233       0.19047137 </v>
    <v>       0.87874768      -0.00032817       0.44940596 </v>
    <v>       0.61687315       0.99938114       0.18617632 </v>
    <v>       0.87571038      -0.00029426       0.18368490 </v>
    <v>       0.37791250      -0.00037005       0.68613940 </v>
    <v>       0.00124827       0.30606468       0.05978012 </v>
    <v>       0.25189314       0.70418228       0.06073818 </v>
    <v>       0.25116884       0.29067798       0.31551436 </v>
    <v>       0.49768251       0.70400910       0.31518446 </v>
    <v>       0.49834359       0.29590860       0.06040025 </v>
    <v>       0.74894462       0.69376167       0.05938345 </v>
    <v>       0.74820639       0.31074667       0.31534993 </v>
    <v>       0.00247025       0.69415701       0.31587698 </v>
    <v>       0.00097106       0.29028006       0.56485218 </v>
    <v>       0.25042013       0.71003538       0.56254907 </v>
    <v>       0.25067375       0.29491233       0.81227388 </v>
    <v>       0.49993463       0.71038089       0.81175774 </v>
    <v>       0.49981054       0.28974082       0.56384127 </v>
    <v>       0.74919193       0.70925090       0.56617459 </v>
    <v>       0.74937076       0.28585620       0.81031080 </v>
    <v>       0.99966605       0.70946672       0.81067409 </v>
    <v>       0.24874125       0.32733498       0.06321329 </v>
    <v>      -0.00092279       0.67350945       0.06476498 </v>
    <v>       0.50187777       0.32719841       0.31161601 </v>
    <v>       0.24874640       0.67283633       0.31157142 </v>
    <v>       0.75099566       0.32647081       0.06543444 </v>
    <v>       0.50139324       0.67283234       0.06410878 </v>
    <v>       0.99819428       0.32614408       0.31103923 </v>
    <v>       0.75102142       0.67373965       0.31109979 </v>
    <v>       0.24985533       0.32791988       0.56284521 </v>
    <v>      -0.00050634       0.67245576       0.56075400 </v>
    <v>       0.49923670       0.32789990       0.81393870 </v>
    <v>       0.24966289       0.67184662       0.81385966 </v>
    <v>       0.75055644       0.32732612       0.55987518 </v>
    <v>       0.50028258       0.67205063       0.56174646 </v>
    <v>       0.00053039       0.32777628       0.81490003 </v>
    <v>       0.75033199       0.67242235       0.81499732 </v>
    <v>       0.50565615       0.07680756       0.06788658 </v>
    <v>       0.24413099       0.92287826       0.06723500 </v>
    <v>       0.24706919       0.08090630       0.30464695 </v>
    <v>      -0.00610579       0.93103859       0.30625974 </v>
    <v>       0.99854619       0.06891102       0.06806599 </v>
    <v>       0.75112347       0.93124634       0.06876606 </v>
    <v>       0.75309545       0.06579455       0.30856122 </v>
    <v>       0.50644437       0.92331583       0.30706421 </v>
    <v>       0.49842104       0.08349005       0.56354610 </v>
    <v>       0.25140958       0.91744466       0.56905605 </v>
    <v>       0.24902610       0.07910763       0.80880420 </v>
    <v>       0.00262055       0.91824370       0.81671556 </v>
    <v>       0.99725228       0.08253156       0.55874646 </v>
    <v>       0.75219834       0.91919487       0.55324981 </v>
    <v>       0.75049342       0.08529383       0.81896847 </v>
    <v>       0.49812988       0.91653324       0.81131030 </v>
   </varray>
  </structure>
  <varray name="forces" >
   <v>      -0.04258917       0.03747691       0.07323705 </v>
   <v>      -0.43343805      -0.10555453       0.65947310 </v>
   <v>       0.26228795      -0.10386070      -0.33229794 </v>
   <v>      -0.28125121      -0.02239420      -0.31937360 </v>
   <v>      -0.24985480       0.11882360      -0.70683255 </v>
   <v>      -0.09183572       0.02312677      -0.71218969 </v>
   <v>      -0.21546280      -0.06524816       0.41301575 </v>
   <v>       0.29381167      -0.10140656       0.29730144 </v>
   <v>       0.36694671      -0.05107326       0.11197632 </v>
   <v>      -0.13811127       0.01429177      -0.00406372 </v>
   <v>       0.36709243       0.00511093       0.02197339 </v>
   <v>       0.02039241      -0.11479561      -0.17363162 </v>
   <v>       0.10792111      -0.09974208      -0.30650973 </v>
   <v>       0.09246459       0.69472090       0.41047875 </v>
   <v>      -0.07930324      -0.03761231       0.23493902 </v>
   <v>      -0.12187364       0.06909827      -0.25887094 </v>
   <v>      -0.02960040       0.10008055      -0.12944822 </v>
   <v>      -0.05375151       0.00593784       0.11527644 </v>
   <v>       0.07735431       0.20108635       0.13809064 </v>
   <v>       0.14377896       1.23622383       0.14555851 </v>
   <v>       0.00617188      -1.14660199      -0.12186756 </v>
   <v>       0.09534975       0.48672156      -0.00692035 </v>
   <v>      -0.01515491      -1.48899743      -0.02740969 </v>
   <v>       0.00067838       1.50776585       0.03577609 </v>
   <v>      -0.15817095      -0.63180164       0.29434148 </v>
   <v>      -0.05427182       2.04721463      -0.33823667 </v>
   <v>      -0.00160427      -0.92704086      -0.11136230 </v>
   <v>      -0.14026232       0.13688878       0.05755053 </v>
   <v>      -0.07393033      -0.23933424       0.14353125 </v>
   <v>       0.16962955       0.12428422      -0.13364103 </v>
   <v>      -0.12311051      -0.04123674      -0.15966104 </v>
   <v>       0.06434799       0.25538591       0.17926331 </v>
   <v>       0.14791701      -0.10475384       0.13395115 </v>
   <v>      -0.10499840       0.18893080      -0.11980607 </v>
   <v>       0.07047623      -0.33418243      -0.10926115 </v>
   <v>      -0.00961845       0.13082280       0.02678904 </v>
   <v>      -0.09414926      -0.04735663      -0.23694888 </v>
   <v>      -0.10690462       0.10481429       0.11937540 </v>
   <v>      -0.02644711      -0.22743768       0.10546467 </v>
   <v>       0.08430141       0.06856374      -0.34507693 </v>
   <v>       0.02209717      -0.10453962      -0.12375125 </v>
   <v>       0.07435105       0.12757196       0.22307390 </v>
   <v>       0.03583677      -0.05202998       0.25112932 </v>
   <v>       0.38944653       0.20255460       0.37712781 </v>
   <v>      -0.54918880      -0.08703494       0.56745325 </v>
   <v>       0.02323838      -0.59631561      -0.97478369 </v>
   <v>      -0.45713584      -0.76273292      -0.35393695 </v>
   <v>       0.31520869       0.70860017       0.28419648 </v>
   <v>      -0.25228575      -0.73244932       0.23486101 </v>
   <v>       0.16173412       0.72542328      -0.05994577 </v>
   <v>       0.42373375      -0.22677152      -0.42372890 </v>
   <v>      -0.31778554      -1.44405175       0.30931793 </v>
   <v>       0.31233961       1.20672802       1.27016263 </v>
   <v>      -0.12270043      -0.36642644      -0.81501739 </v>
   <v>       0.49378643       1.01734747       0.52561504 </v>
   <v>      -0.03658023      -0.96647187      -0.07381855 </v>
   <v>       0.10068351       0.58079586      -1.08818388 </v>
   <v>       0.01373895      -2.34656231       1.13598392 </v>
   <v>      -0.35574593       1.44942551      -0.32970857 </v>
  </varray>
  <varray name="stress" >
   <v>       5.96138128       1.57853635       0.85818826 </v>
   <v>       1.57853607      15.32589547      -0.35412210 </v>
   <v>       0.85818862      -0.35412197      10.32302952 </v>
  </varray>
  <energy>
   <i name="e_fr_energy">   -301.38641829 </i>
   <i name="e_wo_entrp">   -301.38641829 </i>
   <i name="e_0_energy">      0.00000000 </i>
  </energy>
  <time name="totalsc"> 1004.28 1009.39</time>
 </calculation>
 <calculation>
  <scstep>
   <time name="dav">   65.67   66.35</time>
   <time name="total">   66.44   67.13</time>
   <energy>
    <i name="alphaZ">   1071.75930662 </i>
    <i name="ewald"> -30497.81833633 </i>
    <i name="hartreedc"> -12892.40794415 </i>
    <i name="XCdc">   1274.14804531 </i>
    <i name="pawpsdc">  43987.29626061 </i>
    <i name="pawaedc"> -43301.46439587 </i>
    <i name="eentropy">      0.00000000 </i>
    <i name="bandstr">  -3956.21556336 </i>
    <i name="atom">  44026.03258983 </i>
    <i name="e_fr_energy">   -288.67003734 </i>
    <i name="e_wo_entrp">   -288.67003734 </i>
    <i name="e_0_energy">   -288.67003734 </i>
   </energy>
  </scstep>
  <scstep>
   <time name="dav">   68.42   69.34</time>
   <time name="total">   69.14   70.14</time>
   <energy>
    <i name="e_fr_energy">   -288.68362738 </i>
    <i name="e_wo_entrp">   -288.68362738 </i>
    <i name="e_0_energy">   -288.68362738 </i>
   </energy>
  </scstep>
  <scstep>
   <time name="dav">   80.03   81.14</time>
   <time name="total">   80.80   81.92</time>
   <energy>
    <i name="e_fr_energy">   -288.68300464 </i>
    <i name="e_wo_entrp">   -288.68300464 </i>
    <i name="e_0_energy">   -288.68300464 </i>
   </energy>
  </scstep>
  <scstep>
   <time name="dav">   68.46   69.00</time>
   <time name="total">   69.24   69.78</time>
   <energy>
    <i name="e_fr_energy">   -288.68231807 </i>
    <i name="e_wo_entrp">   -288.68231807 </i>
    <i name="e_0_energy">   -288.68231807 </i>
   </energy>
  </scstep>
  <scstep>
   <time name="dav">   78.42   78.70</time>
   <time name="total">   79.19   79.49</time>
   <energy>
    <i name="e_fr_energy">   -288.68221121 </i>
    <i name="e_wo_entrp">   -288.68221121 </i>
    <i name="e_0_energy">   -288.68221121 </i>
   </energy>
  </scstep>
  <scstep>
   <time name="dav">   71.34   71.84</time>
   <time name="total">   72.15   72.67</time>
   <energy>
    <i name="e_fr_energy">   -288.68220583 </i>
    <i name="e_wo_entrp">   -288.68220583 </i>
    <i name="e_0_energy">   -288.68220583 </i>
   </energy>
  </scstep>
  <scstep>
   <time name="dav">   73.17   74.06</time>
   <time name="total">   73.94   74.84</time>
   <energy>
    <i name="e_fr_energy">   -288.68219949 </i>
    <i name="e_wo_entrp">   -288.68219949 </i>
    <i name="e_0_energy">   -288.68219949 </i>
   </energy>
  </scstep>
  <scstep>
   <time name="dav">   62.20   62.72</time>
   <time name="total">   63.01   63.57</time>
   <energy>
    <i name="e_fr_energy">   -288.68219584 </i>
    <i name="e_wo_entrp">   -288.68219584 </i>
    <i name="e_0_energy">   -288.68219584 </i>
   </energy>
  </scstep>
  <scstep>
   <time name="dav">   59.95   61.07</time>
   <time name="total">   60.02   61.14</time>
   <energy>
    <i name="alphaZ">   1071.75930662 </i>
    <i name="ewald"> -30497.81833633 </i>
    <i name="hartreedc"> -12897.21492600 </i>
    <i name="XCdc">   1274.34677702 </i>
    <i name="pawpsdc">  43962.40712610 </i>
    <i name="pawaedc"> -43276.31157212 </i>
    <i name="eentropy">      0.00000000 </i>
    <i name="bandstr">  -3951.88316064 </i>
    <i name="atom">  44026.03258983 </i>
    <i name="e_fr_energy">   -288.68219553 </i>
    <i name="e_wo_entrp">   -288.68219553 </i>
    <i name="e_0_energy">   -288.68219553 </i>
   </energy>
  </scstep>
  <structure>
   <crystal>
    <varray name="basis" >
     <v>      11.19282841      -0.00344418      -0.00641378 </v>
     <v>      -0.00295001       9.50335499      -0.00061252 </v>
     <v>      -0.00641602      -0.00071538      11.13538294 </v>
    </varray>
    <i name="volume">   1184.46373410 </i>
    <varray name="rec_basis" >
     <v>       0.08934296       0.00002774       0.00005148 </v>
     <v>       0.00003238       0.10522601       0.00000678 </v>
     <v>       0.00005146       0.00000580       0.08980386 </v>
    </varray>
   </crystal>
   <varray name="positions" >
    <v>       0.37392583       0.00049257       0.18753129 </v>
    <v>       0.62163401       0.99894776       0.44223795 </v>
    <v>       0.12718860       0.99894006       0.93358276 </v>
    <v>       0.12272814       0.99955988       0.68524265 </v>
    <v>       0.62352524       0.00076888       0.93160200 </v>
    <v>       0.87477088       0.00042934       0.93092255 </v>
    <v>       0.13206369       0.00042850       0.19027701 </v>
    <v>       0.87856735      -0.00030135       0.44873018 </v>
    <v>       0.61728776       0.99940612       0.18621396 </v>
    <v>       0.87565153      -0.00026916       0.18385654 </v>
    <v>       0.37773556      -0.00034091       0.68617868 </v>
    <v>       0.00118828       0.30547653       0.05994335 </v>
    <v>       0.25179874       0.70421620       0.06084979 </v>
    <v>       0.25109922       0.29092197       0.31536911 </v>
    <v>       0.49779966       0.70405245       0.31505710 </v>
    <v>       0.49843938       0.29586978       0.06053018 </v>
    <v>       0.74900842       0.69435925       0.05956821 </v>
    <v>       0.74829522       0.30990533       0.31521357 </v>
    <v>       0.00233097       0.69473310       0.31571217 </v>
    <v>       0.00092600       0.29054558       0.56474210 </v>
    <v>       0.25040452       0.70975277       0.56256311 </v>
    <v>       0.25063070       0.29492733       0.81230329 </v>
    <v>       0.49993111       0.71007960       0.81181497 </v>
    <v>       0.49982771       0.29003553       0.56378572 </v>
    <v>       0.74924202       0.70901073       0.56599326 </v>
    <v>       0.74939773       0.28636103       0.81044609 </v>
    <v>       0.99967698       0.70921488       0.81078974 </v>
    <v>       0.24881136       0.32730445       0.06319428 </v>
    <v>      -0.00087073       0.67349435       0.06466234 </v>
    <v>       0.50177450       0.32717520       0.31168299 </v>
    <v>       0.24881095       0.67285765       0.31164091 </v>
    <v>       0.75094490       0.32648696       0.06529565 </v>
    <v>       0.50132123       0.67285381       0.06404143 </v>
    <v>       0.99828843       0.32617797       0.31113742 </v>
    <v>       0.75096406       0.67371207       0.31119463 </v>
    <v>       0.24986574       0.32785769       0.56284601 </v>
    <v>      -0.00047644       0.67249765       0.56086753 </v>
    <v>       0.49927488       0.32783880       0.81388058 </v>
    <v>       0.24967826       0.67192144       0.81380579 </v>
    <v>       0.75052939       0.32729605       0.56003604 </v>
    <v>       0.50027017       0.67211441       0.56180647 </v>
    <v>       0.00049921       0.32772183       0.81479005 </v>
    <v>       0.75031147       0.67246601       0.81488211 </v>
    <v>       0.50534594       0.07687082       0.06759391 </v>
    <v>       0.24443835       0.92283194       0.06697782 </v>
    <v>       0.24723341       0.08074813       0.30506815 </v>
    <v>      -0.00577157       0.93055098       0.30659409 </v>
    <v>       0.99861708       0.06940151       0.06776391 </v>
    <v>       0.75105596       0.93074729       0.06842611 </v>
    <v>       0.75293686       0.06645354       0.30877130 </v>
    <v>       0.50610617       0.92324564       0.30735482 </v>
    <v>       0.49849857       0.08319207       0.56348760 </v>
    <v>       0.25132693       0.91769205       0.56870050 </v>
    <v>       0.24908536       0.07904668       0.80900127 </v>
    <v>       0.00248701       0.91844787       0.81648613 </v>
    <v>       0.99739260       0.08228546       0.55894669 </v>
    <v>       0.75207392       0.91934766       0.55374615 </v>
    <v>       0.75047362       0.08489824       0.81861764 </v>
    <v>       0.49823717       0.91683003       0.81137235 </v>
   </varray>
  </structure>
  <varray name="forces" >
   <v>      -0.04966409       0.03928787       0.07854143 </v>
   <v>      -0.45747817      -0.10867499       0.69393321 </v>
   <v>       0.27032240      -0.10838275      -0.35734388 </v>
   <v>      -0.29122531      -0.02448239      -0.32375560 </v>
   <v>      -0.25938141       0.12250790      -0.73815570 </v>
   <v>      -0.09602983       0.02571333      -0.75280284 </v>
   <v>      -0.08782717      -0.04717270       0.44336446 </v>
   <v>       0.31943618      -0.09559173       0.44542103 </v>
   <v>       0.23086167      -0.05126700       0.09730324 </v>
   <v>      -0.11275282       0.00706353      -0.04352732 </v>
   <v>       0.38912586      -0.00154371       0.01158388 </v>
   <v>       0.03399970      -0.03375042      -0.20450771 </v>
   <v>       0.12337873      -0.10241250      -0.31749593 </v>
   <v>       0.10102618       0.59508899       0.41869995 </v>
   <v>      -0.10125834      -0.04499237       0.25366589 </v>
   <v>      -0.13707890       0.07402483      -0.27713432 </v>
   <v>      -0.04338060       0.01960883      -0.16752874 </v>
   <v>      -0.07121343       0.10048317       0.14190559 </v>
   <v>       0.10621348       0.11764408       0.17155548 </v>
   <v>       0.14434886       1.08812446       0.15950685 </v>
   <v>       0.01043373      -0.99877828      -0.11365664 </v>
   <v>       0.10039880       0.45481435      -0.01400426 </v>
   <v>      -0.01533974      -1.30699844      -0.04009564 </v>
   <v>      -0.00483685       1.32613829       0.04770326 </v>
   <v>      -0.16031348      -0.53859980       0.31523535 </v>
   <v>      -0.05642252       1.74667640      -0.33732236 </v>
   <v>      -0.00266929      -0.80454550      -0.12879306 </v>
   <v>      -0.14958001       0.13556723       0.05882678 </v>
   <v>      -0.08147276      -0.22499588       0.15977393 </v>
   <v>       0.18579511       0.12270374      -0.14200131 </v>
   <v>      -0.13233321      -0.04345099      -0.16712682 </v>
   <v>       0.07219359       0.24037996       0.20231021 </v>
   <v>       0.15711527      -0.10367870       0.14244893 </v>
   <v>      -0.12101753       0.17403576      -0.13625896 </v>
   <v>       0.07971670      -0.31329435      -0.12501700 </v>
   <v>      -0.01158291       0.13672913       0.02456369 </v>
   <v>      -0.09573480      -0.05384384      -0.25325990 </v>
   <v>      -0.11044672       0.11227504       0.12756020 </v>
   <v>      -0.02845498      -0.23044860       0.11348573 </v>
   <v>       0.08578568       0.07198824      -0.36739223 </v>
   <v>       0.02373136      -0.11240988      -0.13223158 </v>
   <v>       0.07773868       0.13224341       0.23898934 </v>
   <v>       0.03855783      -0.05865177       0.26685668 </v>
   <v>       0.45362382       0.16906564       0.43969104 </v>
   <v>      -0.59677358      -0.06781826       0.60373434 </v>
   <v>      -0.02822437      -0.53042834      -1.02924917 </v>
   <v>      -0.52137365      -0.66131774      -0.42315998 </v>
   <v>       0.27369192       0.60867339       0.34895236 </v>
   <v>      -0.21602438      -0.63174360       0.31007450 </v>
   <v>       0.19505164       0.61876461      -0.10732787 </v>
   <v>       0.49122350      -0.19201106      -0.48248852 </v>
   <v>      -0.31831321      -1.26653113       0.30638097 </v>
   <v>       0.31392617       1.06381046       1.27967545 </v>
   <v>      -0.12952375      -0.33185151      -0.81638748 </v>
   <v>       0.49770938       0.90068815       0.54776740 </v>
   <v>      -0.07640986      -0.84611858      -0.12226021 </v>
   <v>       0.13258129       0.51439113      -1.14662255 </v>
   <v>       0.01668340      -2.05420626       1.14361389 </v>
   <v>      -0.36053328       1.27150116      -0.32621748 </v>
  </varray>
  <varray name="stress" >
   <v>       5.58134307       1.40901417       0.74118684 </v>
   <v>       1.40901383      12.68459443      -0.32870417 </v>
   <v>       0.74118668      -0.32870477       9.15719800 </v>
  </varray>
  <energy>
   <i name="e_fr_energy">   -301.39746991 </i>
   <i name="e_wo_entrp">   -301.39746991 </i>
   <i name="e_0_energy">      0.00000000 </i>
  </energy>
  <time name="totalsc">  739.64  748.11</time>
 </calculation>
 <calculation>
  <scstep>
   <time name="dav">   68.80   69.58</time>
   <time name="total">   69.58   70.36</time>
   <energy>
    <i name="alphaZ">   1057.79640232 </i>
    <i name="ewald"> -30493.62963728 </i>
    <i name="hartreedc"> -12719.71700534 </i>
    <i name="XCdc">   1266.18656269 </i>
    <i name="pawpsdc">  43962.44349198 </i>
    <i name="pawaedc"> -43276.34799346 </i>
    <i name="eentropy">      0.00000000 </i>
    <i name="bandstr">  -4111.04535377 </i>
    <i name="atom">  44026.03258983 </i>
    <i name="e_fr_energy">   -288.28094303 </i>
    <i name="e_wo_entrp">   -288.28094303 </i>
    <i name="e_0_energy">   -288.28094303 </i>
   </energy>
  </scstep>
  <scstep>
   <time name="dav">   70.04   70.50</time>
   <time name="total">   70.81   71.28</time>
   <energy>
    <i name="e_fr_energy">   -289.56799471 </i>
    <i name="e_wo_entrp">   -289.56799471 </i>
    <i name="e_0_energy">   -289.56799471 </i>
   </energy>
  </scstep>
  <scstep>
   <time name="dav">   80.59   80.99</time>
   <time name="total">   81.37   81.78</time>
   <energy>
    <i name="e_fr_energy">   -289.49241005 </i>
    <i name="e_wo_entrp">   -289.49241005 </i>
    <i name="e_0_energy">   -289.49241005 </i>
   </energy>
  </scstep>
  <scstep>
   <time name="dav">   78.53   78.98</time>
   <time name="total">   79.30   79.76</time>
   <energy>
    <i name="e_fr_energy">   -289.45620852 </i>
    <i name="e_wo_entrp">   -289.45620852 </i>
    <i name="e_0_energy">   -289.45620852 </i>
   </energy>
  </scstep>
  <scstep>
   <time name="dav">   70.46   70.77</time>
   <time name="total">   71.25   71.56</time>
   <energy>
    <i name="e_fr_energy">   -289.43955546 </i>
    <i name="e_wo_entrp">   -289.43955546 </i>
    <i name="e_0_energy">   -289.43955546 </i>
   </energy>
  </scstep>
  <scstep>
   <time name="dav">   78.72   79.52</time>
   <time name="total">   79.50   80.31</time>
   <energy>
    <i name="e_fr_energy">   -289.43924488 </i>
    <i name="e_wo_entrp">   -289.43924488 </i>
    <i name="e_0_energy">   -289.43924488 </i>
   </energy>
  </scstep>
  <scstep>
   <time name="dav">   75.39   75.94</time>
   <time name="total">   76.17   76.73</time>
   <energy>
    <i name="e_fr_energy">   -289.43913123 </i>
    <i name="e_wo_entrp">   -289.43913123 </i>
    <i name="e_0_energy">   -289.43913123 </i>
   </energy>
  </scstep>
  <scstep>
   <time name="dav">   79.33   79.70</time>
   <time name="total">   80.11   80.48</time>
   <energy>
    <i name="e_fr_energy">   -289.43903875 </i>
    <i name="e_wo_entrp">   -289.43903875 </i>
    <i name="e_0_energy">   -289.43903875 </i>
   </energy>
  </scstep>
  <scstep>
   <time name="dav">   89.08   91.55</time>
   <time name="total">   89.92   92.64</time>
   <energy>
    <i name="e_fr_energy">   -289.43903382 </i>
    <i name="e_wo_entrp">   -289.43903382 </i>
    <i name="e_0_energy">   -289.43903382 </i>
   </energy>
  </scstep>
  <scstep>
   <time name="dav">   67.20   68.21</time>
   <time name="total">   68.00   69.03</time>
   <energy>
    <i name="e_fr_energy">   -289.43903825 </i>
    <i name="e_wo_entrp">   -289.43903825 </i>
    <i name="e_0_energy">   -289.43903825 </i>
   </energy>
  </scstep>
  <scstep>
   <time name="dav">   60.46   60.63</time>
   <time name="total">   61.24   61.42</time>
   <energy>
    <i name="e_fr_energy">   -289.43904152 </i>
    <i name="e_wo_entrp">   -289.43904152 </i>
    <i name="e_0_energy">   -289.43904152 </i>
   </energy>
  </scstep>
  <scstep>
   <time name="dav">   66.20   66.26</time>
   <time name="total">   66.98   67.06</time>
   <energy>
    <i name="e_fr_energy">   -289.43904439 </i>
    <i name="e_wo_entrp">   -289.43904439 </i>
    <i name="e_0_energy">   -289.43904439 </i>
   </energy>
  </scstep>
  <scstep>
   <time name="dav">   51.98   52.28</time>
   <time name="total">   52.05   52.35</time>
   <energy>
    <i name="alphaZ">   1057.79640232 </i>
    <i name="ewald"> -30493.62963728 </i>
    <i name="hartreedc"> -12836.74646687 </i>
    <i name="XCdc">   1271.58971594 </i>
    <i name="pawpsdc">  43505.97698483 </i>
    <i name="pawaedc"> -42814.07922307 </i>
    <i name="eentropy">      0.00000000 </i>
    <i name="bandstr">  -4006.37941062 </i>
    <i name="atom">  44026.03258983 </i>
    <i name="e_fr_energy">   -289.43904491 </i>
    <i name="e_wo_entrp">   -289.43904491 </i>
    <i name="e_0_energy">   -289.43904491 </i>
   </energy>
  </scstep>
  <structure>
   <crystal>
    <varray name="basis" >
     <v>      11.23468880       0.00488688      -0.00349598 </v>
     <v>       0.00412651       9.55322668      -0.00267486 </v>
     <v>      -0.00351195      -0.00313654      11.18165206 </v>
    </varray>
    <i name="volume">   1200.09864619 </i>
    <varray name="rec_basis" >
     <v>       0.08901006      -0.00003844       0.00002795 </v>
     <v>      -0.00004552       0.10467670       0.00002935 </v>
     <v>       0.00002782       0.00002503       0.08943224 </v>
    </varray>
   </crystal>
   <varray name="positions" >
    <v>       0.37349985       0.00079189       0.18807633 </v>
    <v>       0.61850762       0.99811870       0.44690394 </v>
    <v>       0.12890371       0.99811127       0.93101495 </v>
    <v>       0.12089489       0.99934742       0.68334050 </v>
    <v>       0.62183171       0.00167721       0.92677518 </v>
    <v>       0.87416427       0.00063997       0.92581917 </v>
    <v>       0.13402916       0.00037893       0.19325345 </v>
    <v>       0.88092932      -0.00092933       0.45438284 </v>
    <v>       0.61597515       0.99901077       0.18642313 </v>
    <v>       0.87549678      -0.00037288       0.18271905 </v>
    <v>       0.38037509      -0.00050946       0.68601173 </v>
    <v>       0.00166505       0.30856403       0.05816280 </v>
    <v>       0.25284695       0.70351412       0.05887112 </v>
    <v>       0.25191752       0.29255959       0.31796850 </v>
    <v>       0.49671936       0.70358637       0.31684949 </v>
    <v>       0.49732358       0.29645620       0.05862243 </v>
    <v>       0.74846967       0.69114842       0.05782680 </v>
    <v>       0.74749980       0.31506897       0.31657684 </v>
    <v>       0.00355610       0.69213390       0.31736058 </v>
    <v>       0.00179299       0.29453992       0.56603609 </v>
    <v>       0.25053391       0.70630201       0.56199798 </v>
    <v>       0.25129786       0.29712843       0.81208074 </v>
    <v>       0.49988332       0.70518440       0.81132572 </v>
    <v>       0.49971386       0.29506324       0.56429824 </v>
    <v>       0.74828095       0.70763581       0.56834811 </v>
    <v>       0.74900925       0.29233689       0.80825141 </v>
    <v>       0.99960366       0.70656910       0.80959695 </v>
    <v>       0.24778545       0.32815412       0.06355133 </v>
    <v>      -0.00150649       0.67244800       0.06591537 </v>
    <v>       0.50313868       0.32792014       0.31070386 </v>
    <v>       0.24788864       0.67252112       0.31053940 </v>
    <v>       0.75153472       0.32760486       0.06693167 </v>
    <v>       0.50239034       0.67221451       0.06502533 </v>
    <v>       0.99725070       0.32686404       0.31000932 </v>
    <v>       0.75162107       0.67229154       0.31013365 </v>
    <v>       0.24975889       0.32888869       0.56294687 </v>
    <v>      -0.00105093       0.67199503       0.55915304 </v>
    <v>       0.49859291       0.32874085       0.81474897 </v>
    <v>       0.24947173       0.67034981       0.81459040 </v>
    <v>       0.75104425       0.32782412       0.55757072 </v>
    <v>       0.50043965       0.67119667       0.56090737 </v>
    <v>       0.00100418       0.32868763       0.81642368 </v>
    <v>       0.75059016       0.67192982       0.81666401 </v>
    <v>       0.50900013       0.07737030       0.07110048 </v>
    <v>       0.24019220       0.92274718       0.07098837 </v>
    <v>       0.24620000       0.07895991       0.29832381 </v>
    <v>      -0.00984826       0.92992922       0.30292716 </v>
    <v>       0.99939296       0.06974257       0.07093348 </v>
    <v>       0.75050873       0.93033806       0.07163724 </v>
    <v>       0.75464788       0.06591188       0.30714837 </v>
    <v>       0.51007310       0.92267064       0.30367840 </v>
    <v>       0.49671083       0.07848141       0.56512365 </v>
    <v>       0.25312789       0.92166530       0.57615539 </v>
    <v>       0.24820237       0.07771721       0.80441040 </v>
    <v>       0.00535157       0.92184135       0.82010603 </v>
    <v>       0.99628792       0.07939900       0.55731331 </v>
    <v>       0.75332656       0.92108463       0.54608320 </v>
    <v>       0.75065443       0.07677328       0.82546163 </v>
    <v>       0.49610634       0.92157120       0.80963004 </v>
   </varray>
  </structure>
  <varray name="forces" >
   <v>      -0.00273981       0.03881662       0.02259356 </v>
   <v>      -0.30952390      -0.06714594       0.46617433 </v>
   <v>       0.24283224      -0.08102748      -0.17644021 </v>
   <v>      -0.16731272      -0.01211175      -0.26807146 </v>
[...]
       <r>    8.5742    0.0000 </r>
       <r>    8.5927    0.0000 </r>
       <r>    8.6082    0.0000 </r>
       <r>    8.7037    0.0000 </r>
       <r>    8.7290    0.0000 </r>
       <r>    8.7324    0.0000 </r>
       <r>    8.9527    0.0000 </r>
       <r>    9.8347    0.0000 </r>
       <r>   10.0939    0.0000 </r>
      </set>
     </set>
    </set>
   </array>
  </eigenvalues>
  <separator name="orbital magnetization" >
   <v name="MAGDIPOLOUT">      0.00000000      0.00000000      0.00000000</v>
  </separator>
  <dos>
   <i name="efermi">      4.04527484 </i>
   <total>
    <array>
     <dimension dim="1">gridpoints</dimension>
     <dimension dim="2">spin</dimension>
     <field>energy</field>
     <field>total</field>
     <field>integrated</field>
     <set>
      <set comment="spin 1">
       <r>   -42.6119     0.0000     0.0000 </r>
       <r>   -42.4279     0.0000     0.0000 </r>
       <r>   -42.2438     0.0000     0.0000 </r>
       <r>   -42.0598     0.0000     0.0000 </r>
       <r>   -41.8757     0.0000     0.0000 </r>
       <r>   -41.6917     0.0000     0.0000 </r>
       <r>   -41.5076     0.0000     0.0000 </r>
       <r>   -41.3236     0.0000     0.0000 </r>
       <r>   -41.1395     0.0000     0.0000 </r>
       <r>   -40.9555     0.0000     0.0000 </r>
       <r>   -40.7714     0.0000     0.0000 </r>
       <r>   -40.5874     0.0000     0.0000 </r>
       <r>   -40.4033     0.0000     0.0000 </r>
       <r>   -40.2193     0.0000     0.0000 </r>
       <r>   -40.0352     0.0000     2.0000 </r>
       <r>   -39.8512     0.0000     6.0000 </r>
       <r>   -39.6671     0.0000    10.0000 </r>
       <r>   -39.4830     0.0000    10.0000 </r>
       <r>   -39.2990     0.0000    12.0000 </r>
       <r>   -39.1149     0.0000    12.0000 </r>
       <r>   -38.9309     0.0000    12.0000 </r>
       <r>   -38.7468     0.0000    12.0000 </r>
       <r>   -38.5628     0.0000    12.0000 </r>
       <r>   -38.3787     0.0000    12.0000 </r>
       <r>   -38.1947     0.0000    12.0000 </r>
       <r>   -38.0106     0.0000    12.0000 </r>
       <r>   -37.8266     0.0000    12.0000 </r>
       <r>   -37.6425     0.0000    12.0000 </r>
       <r>   -37.4585     0.0000    12.0000 </r>
       <r>   -37.2744     0.0000    12.0000 </r>
       <r>   -37.0904     0.0000    12.0000 </r>
       <r>   -36.9063     0.0000    12.0000 </r>
       <r>   -36.7223     0.0000    12.0000 </r>
       <r>   -36.5382     0.0000    12.0000 </r>
       <r>   -36.3542     0.0000    12.0000 </r>
       <r>   -36.1701     0.0000    12.0000 </r>
       <r>   -35.9861     0.0000    12.0000 </r>
       <r>   -35.8020     0.0000    12.0000 </r>
       <r>   -35.6180     0.0000    12.0000 </r>
       <r>   -35.4339     0.0000    12.0000 </r>
       <r>   -35.2498     0.0000    12.0000 </r>
       <r>   -35.0658     0.0000    12.0000 </r>
       <r>   -34.8817     0.0000    12.0000 </r>
       <r>   -34.6977     0.0000    12.0000 </r>
       <r>   -34.5136     0.0000    12.0000 </r>
       <r>   -34.3296     0.0000    12.0000 </r>
       <r>   -34.1455     0.0000    12.0000 </r>
       <r>   -33.9615     0.0000    12.0000 </r>
       <r>   -33.7774     0.0000    12.0000 </r>
       <r>   -33.5934     0.0000    12.0000 </r>
       <r>   -33.4093     0.0000    12.0000 </r>
       <r>   -33.2253     0.0000    12.0000 </r>
       <r>   -33.0412     0.0000    12.0000 </r>
       <r>   -32.8572     0.0000    12.0000 </r>
       <r>   -32.6731     0.0000    12.0000 </r>
       <r>   -32.4891     0.0000    12.0000 </r>
       <r>   -32.3050     0.0000    12.0000 </r>
       <r>   -32.1210     0.0000    12.0000 </r>
       <r>   -31.9369     0.0000    12.0000 </r>
       <r>   -31.7529     0.0000    12.0000 </r>
       <r>   -31.5688     0.0000    12.0000 </r>
       <r>   -31.3848     0.0000    12.0000 </r>
       <r>   -31.2007     0.0000    12.0000 </r>
       <r>   -31.0166     0.0000    12.0000 </r>
       <r>   -30.8326     0.0000    12.0000 </r>
       <r>   -30.6485     0.0000    12.0000 </r>
       <r>   -30.4645     0.0000    12.0000 </r>
       <r>   -30.2804     0.0000    12.0000 </r>
       <r>   -30.0964     0.0000    12.0000 </r>
       <r>   -29.9123     0.0000    12.0000 </r>
       <r>   -29.7283     0.0000    12.0000 </r>
       <r>   -29.5442     0.0000    12.0000 </r>
       <r>   -29.3602     0.0000    12.0000 </r>
       <r>   -29.1761     0.0000    12.0000 </r>
       <r>   -28.9921     0.0000    12.0000 </r>
       <r>   -28.8080     0.0000    12.0000 </r>
       <r>   -28.6240     0.0000    12.0000 </r>
       <r>   -28.4399     0.0000    12.0000 </r>
       <r>   -28.2559     0.0000    12.0000 </r>
       <r>   -28.0718     0.0000    12.0000 </r>
       <r>   -27.8878     0.0000    12.0000 </r>
       <r>   -27.7037     0.0000    12.0000 </r>
       <r>   -27.5197     0.0000    12.0000 </r>
       <r>   -27.3356     0.0000    12.0000 </r>
       <r>   -27.1516     0.0000    12.0000 </r>
       <r>   -26.9675     0.0000    12.0000 </r>
       <r>   -26.7835     0.0000    12.0000 </r>
       <r>   -26.5994     0.0000    12.0000 </r>
       <r>   -26.4153     0.0000    12.0000 </r>
       <r>   -26.2313     0.0000    12.0000 </r>
       <r>   -26.0472     0.0000    12.0000 </r>
       <r>   -25.8632     0.0000    12.0000 </r>
       <r>   -25.6791     0.0000    12.0000 </r>
       <r>   -25.4951     0.0000    12.0000 </r>
       <r>   -25.3110     0.0000    12.0000 </r>
       <r>   -25.1270     0.0000    12.0000 </r>
       <r>   -24.9429     0.0000    12.0000 </r>
       <r>   -24.7589     0.0000    12.0000 </r>
       <r>   -24.5748     0.0000    12.0000 </r>
       <r>   -24.3908     0.0000    12.0000 </r>
       <r>   -24.2067     0.0000    12.0000 </r>
       <r>   -24.0227     0.0000    12.0000 </r>
       <r>   -23.8386     0.0000    12.0000 </r>
       <r>   -23.6546     0.0000    12.0000 </r>
       <r>   -23.4705     0.0000    12.0000 </r>
       <r>   -23.2865     0.0000    12.0000 </r>
       <r>   -23.1024     0.0000    12.0000 </r>
       <r>   -22.9184     0.0000    12.0000 </r>
       <r>   -22.7343     0.0000    12.0000 </r>
       <r>   -22.5503     0.0000    12.0000 </r>
       <r>   -22.3662     0.0000    12.0000 </r>
       <r>   -22.1821     0.0000    12.0000 </r>
       <r>   -21.9981     0.0000    12.0000 </r>
       <r>   -21.8140     0.0000    12.0000 </r>
       <r>   -21.6300     0.0000    12.0000 </r>
       <r>   -21.4459     0.0000    12.0000 </r>
       <r>   -21.2619     0.0000    12.0000 </r>
       <r>   -21.0778     0.0000    12.0000 </r>
       <r>   -20.8938     0.0000    12.0000 </r>
       <r>   -20.7097     0.0000    12.0000 </r>
       <r>   -20.5257     0.0000    12.0000 </r>
       <r>   -20.3416     0.0000    12.0000 </r>
       <r>   -20.1576     0.0000    12.0000 </r>
       <r>   -19.9735     0.0000    12.0000 </r>
       <r>   -19.7895     0.0000    12.0000 </r>
       <r>   -19.6054     0.0000    12.0000 </r>
       <r>   -19.4214     0.0000    12.0000 </r>
       <r>   -19.2373     0.0000    12.0000 </r>
       <r>   -19.0533     0.0000    12.0000 </r>
       <r>   -18.8692     0.0000    44.0000 </r>
       <r>   -18.6852     0.0000   122.0000 </r>
       <r>   -18.5011     0.0000   166.0000 </r>
       <r>   -18.3171     0.0000   172.0000 </r>
       <r>   -18.1330     0.0000   172.0000 </r>
       <r>   -17.9490     0.0000   172.0000 </r>
       <r>   -17.7649     0.0000   172.0000 </r>
       <r>   -17.5808     0.0000   172.0000 </r>
       <r>   -17.3968     0.0000   172.0000 </r>
       <r>   -17.2127     0.0000   172.0000 </r>
       <r>   -17.0287     0.0000   172.0000 </r>
       <r>   -16.8446     0.0000   172.0000 </r>
       <r>   -16.6606     0.0000   172.0000 </r>
       <r>   -16.4765     0.0000   172.0000 </r>
       <r>   -16.2925     0.0000   172.0000 </r>
       <r>   -16.1084     0.0000   172.0000 </r>
       <r>   -15.9244     0.0000   172.0000 </r>
       <r>   -15.7403     0.0000   172.0000 </r>
       <r>   -15.5563     0.0000   172.0000 </r>
       <r>   -15.3722     0.0000   172.0000 </r>
       <r>   -15.1882     0.0000   172.0000 </r>
       <r>   -15.0041     0.0000   172.0000 </r>
       <r>   -14.8201     0.0000   172.0000 </r>
       <r>   -14.6360     0.0000   172.0000 </r>
       <r>   -14.4520     0.0000   172.0000 </r>
       <r>   -14.2679     0.0000   172.0000 </r>
       <r>   -14.0839     0.0000   172.0000 </r>
       <r>   -13.8998     0.0000   172.0000 </r>
       <r>   -13.7158     0.0000   172.0000 </r>
       <r>   -13.5317     0.0000   174.0000 </r>
       <r>   -13.3476     0.0000   176.0000 </r>
       <r>   -13.1636     0.0000   180.0000 </r>
       <r>   -12.9795     0.0000   182.0000 </r>
       <r>   -12.7955     9.6999   194.0019 </r>
       <r>   -12.6114     0.0000   204.0000 </r>
       <r>   -12.4274     0.0000   204.0000 </r>
       <r>   -12.2433     0.0000   204.0000 </r>
       <r>   -12.0593     0.0000   204.0000 </r>
       <r>   -11.8752     0.0000   204.0000 </r>
       <r>   -11.6912     0.0000   204.0000 </r>
       <r>   -11.5071     0.0000   204.0000 </r>
       <r>   -11.3231     0.0000   204.0000 </r>
       <r>   -11.1390     0.0000   204.0000 </r>
       <r>   -10.9550     0.0000   204.0000 </r>
       <r>   -10.7709     0.0000   204.0000 </r>
       <r>   -10.5869     0.0000   204.0000 </r>
       <r>   -10.4028     0.0000   204.0000 </r>
       <r>   -10.2188     0.0000   204.0000 </r>
       <r>   -10.0347     0.0000   204.0000 </r>
       <r>    -9.8507     0.0000   204.0000 </r>
       <r>    -9.6666     0.0000   204.0000 </r>
       <r>    -9.4826    11.3756   204.4625 </r>
       <r>    -9.2985     0.0000   206.0000 </r>
       <r>    -9.1145     9.4008   207.5834 </r>
       <r>    -8.9304    13.0429   208.5436 </r>
       <r>    -8.7463     0.0000   212.0000 </r>
       <r>    -8.5623    19.2949   216.2078 </r>
       <r>    -8.3782    10.7465   219.6530 </r>
       <r>    -8.1942    33.4586   221.6542 </r>
       <r>    -8.0101    27.1986   228.5886 </r>
       <r>    -7.8261     2.3955   232.0214 </r>
       <r>    -7.6420    14.7148   235.5005 </r>
       <r>    -7.4580     0.0000   236.0000 </r>
       <r>    -7.2739     0.0000   236.0000 </r>
       <r>    -7.0899     0.0000   236.0000 </r>
       <r>    -6.9058     0.0000   236.0000 </r>
       <r>    -6.7218     0.0000   236.0000 </r>
       <r>    -6.5377     0.0000   236.0000 </r>
       <r>    -6.3537    24.2907   237.6713 </r>
       <r>    -6.1696    14.8477   241.9164 </r>
       <r>    -5.9856    17.1090   244.9614 </r>
       <r>    -5.8015    27.7436   249.7162 </r>
       <r>    -5.6175    25.1792   254.4852 </r>
       <r>    -5.4334    14.7425   258.1309 </r>
       <r>    -5.2494     2.1657   259.9855 </r>
       <r>    -5.0653    10.0626   260.8614 </r>
       <r>    -4.8813    10.0873   263.2008 </r>
       <r>    -4.6972     3.9909   264.4622 </r>
       <r>    -4.5131     7.2320   265.4952 </r>
       <r>    -4.3291     6.1118   267.1095 </r>
       <r>    -4.1450     2.1082   267.7095 </r>
       <r>    -3.9610     0.6794   267.9658 </r>
       <r>    -3.7769     0.0000   268.0000 </r>
       <r>    -3.5929     0.0000   268.0000 </r>
       <r>    -3.4088     0.0000   268.0000 </r>
       <r>    -3.2248     0.0000   268.0000 </r>
       <r>    -3.0407     0.0000   268.0000 </r>
       <r>    -2.8567     0.0000   268.0000 </r>
       <r>    -2.6726     0.0000   268.0000 </r>
       <r>    -2.4886     0.0000   268.0000 </r>
       <r>    -2.3045     0.0000   268.0000 </r>
       <r>    -2.1205     0.0000   268.0000 </r>
       <r>    -1.9364     0.0000   268.0000 </r>
       <r>    -1.7524     0.0000   268.0000 </r>
       <r>    -1.5683     0.0000   268.0000 </r>
       <r>    -1.3843     4.8024   268.1983 </r>
       <r>    -1.2002     8.7550   269.6586 </r>
       <r>    -1.0162     7.6628   271.0313 </r>
       <r>    -0.8321    15.4115   273.3318 </r>
       <r>    -0.6481    17.2807   275.7164 </r>
       <r>    -0.4640    27.6836   279.8034 </r>
       <r>    -0.2799    27.7447   285.1953 </r>
       <r>    -0.0959    44.3456   291.7001 </r>
       <r>     0.0882    37.0645   298.3099 </r>
       <r>     0.2722    41.8744   305.7802 </r>
       <r>     0.4563    18.5214   312.3315 </r>
       <r>     0.6403    45.5787   319.2698 </r>
       <r>     0.8244    51.7013   326.5374 </r>
       <r>     1.0084    47.9323   333.8778 </r>
       <r>     1.1925    49.7599   343.1278 </r>
       <r>     1.3765    38.0849   351.0536 </r>
       <r>     1.5606    50.5479   359.3798 </r>
       <r>     1.7446    42.8730   367.2778 </r>
       <r>     1.9287    51.5174   375.6601 </r>
       <r>     2.1127    56.4559   385.0850 </r>
       <r>     2.2968    63.4859   396.0545 </r>
       <r>     2.4808    67.0816   407.0271 </r>
       <r>     2.6649    64.4845   418.6739 </r>
       <r>     2.8489    68.2820   431.1807 </r>
       <r>     3.0330    43.2913   440.9985 </r>
       <r>     3.2170    38.4229   447.1448 </r>
       <r>     3.4011    19.6827   454.3378 </r>
       <r>     3.5851    13.6891   457.5288 </r>
       <r>     3.7692     6.5951   459.3955 </r>
       <r>     3.9532     0.5347   459.9864 </r>
       <r>     4.1373     0.0000   460.0000 </r>
       <r>     4.3214     0.0000   460.0000 </r>
       <r>     4.5054     0.0000   460.0000 </r>
       <r>     4.6895     0.0000   460.0000 </r>
       <r>     4.8735     0.0000   460.0000 </r>
       <r>     5.0576     1.4973   460.0471 </r>
       <r>     5.2416     7.4667   460.8649 </r>
       <r>     5.4257    10.6623   462.6842 </r>
       <r>     5.6097    28.9581   464.8936 </r>
       <r>     5.7938    14.8009   468.9800 </r>
       <r>     5.9778    13.1557   471.5193 </r>
       <r>     6.1619    13.4017   473.9313 </r>
       <r>     6.3459    14.8751   476.5311 </r>
       <r>     6.5300    16.2376   479.3948 </r>
       <r>     6.7140    18.2356   482.5519 </r>
       <r>     6.8981    22.1657   486.3220 </r>
       <r>     7.0821    23.4995   490.5243 </r>
       <r>     7.2662    33.9663   494.8849 </r>
       <r>     7.4502    38.6704   501.4088 </r>
       <r>     7.6343    34.9316   507.7803 </r>
       <r>     7.8183    35.9955   514.3728 </r>
       <r>     8.0024    29.4724   520.3877 </r>
       <r>     8.1864    25.8570   525.3539 </r>
       <r>     8.3705    30.8249   530.2783 </r>
       <r>     8.5546    38.9433   536.7277 </r>
       <r>     8.7386    34.0953   543.0652 </r>
       <r>     8.9227    27.4380   548.7303 </r>
       <r>     9.1067    14.8841   552.7371 </r>
       <r>     9.2908     7.1037   554.6243 </r>
       <r>     9.4748     8.6119   555.9347 </r>
       <r>     9.6589    12.2928   558.0136 </r>
       <r>     9.8429     3.8385   559.6078 </r>
       <r>    10.0270     0.3880   559.9913 </r>
       <r>    10.2110     0.0000   560.0000 </r>
       <r>    10.3951     0.0000   560.0000 </r>
       <r>    10.5791     0.0000   560.0000 </r>
       <r>    10.7632     0.0000   560.0000 </r>
       <r>    10.9472     0.0000   560.0000 </r>
       <r>    11.1313     0.0000   560.0000 </r>
       <r>    11.3153     0.0000   560.0000 </r>
       <r>    11.4994     0.0000   560.0000 </r>
       <r>    11.6834     0.0000   560.0000 </r>
       <r>    11.8675     0.0000   560.0000 </r>
       <r>    12.0515     0.0000   560.0000 </r>
       <r>    12.2356     0.0000   560.0000 </r>
       <r>    12.4196     0.0000   560.0000 </r>
       <r>    12.6037     0.0000   560.0000 </r>
      </set>
     </set>
    </array>
   </total>
  </dos>
 </calculation>
 <structure name="finalpos" >
  <crystal>
   <varray name="basis" >
    <v>      11.25226903      -0.02259086      -0.02477163 </v>
    <v>      -0.02036159       9.60510414       0.09823280 </v>
    <v>      -0.02507792       0.11620578      11.24414114 </v>
   </varray>
   <i name="volume">   1215.11848580 </i>
   <varray name="rec_basis" >
    <v>       0.08887177       0.00018639       0.00019629 </v>
    <v>       0.00020668       0.10412275      -0.00107563 </v>
    <v>       0.00019399      -0.00090924       0.08894503 </v>
   </varray>
  </crystal>
  <varray name="positions" >
   <v>       0.39425089       0.00969058       0.20837647 </v>
   <v>       0.59393721       0.96737064       0.52542172 </v>
   <v>       0.16567105       0.98462552       0.91537229 </v>
   <v>       0.10445420      -0.00792762       0.66427850 </v>
   <v>       0.57404501       0.02950592       0.90663504 </v>
   <v>       0.85170531      -0.02612466       0.80422685 </v>
   <v>       0.13337565      -0.00588170       0.19683805 </v>
   <v>       0.88394977      -0.00612395       0.43012791 </v>
   <v>       0.63604461      -0.00069208       0.19635955 </v>
   <v>       0.88310191      -0.00103505       0.16689197 </v>
   <v>       0.36678839       0.00311195       0.69793065 </v>
   <v>       0.00789948       0.31645309       0.06333398 </v>
   <v>       0.24869273       0.69326961       0.06421748 </v>
   <v>       0.25649945       0.29882284       0.31221965 </v>
   <v>       0.50201802       0.69375121       0.31372090 </v>
   <v>       0.50464778       0.30893710       0.06940410 </v>
   <v>       0.74879686       0.68359446       0.06236522 </v>
   <v>       0.75588251       0.31499145       0.31388730 </v>
   <v>       0.00272152       0.67947314       0.31280628 </v>
   <v>      -0.00145985       0.29665033       0.56385285 </v>
   <v>       0.25153252       0.70026673       0.56875000 </v>
   <v>       0.24753659       0.31008646       0.81057730 </v>
   <v>       0.49848954       0.70186549       0.81627365 </v>
   <v>       0.49658478       0.30312664       0.57160799 </v>
   <v>       0.75330679       0.68787740       0.56060090 </v>
   <v>       0.74589201       0.29849944       0.81724987 </v>
   <v>       0.00541350       0.69931180       0.81212259 </v>
   <v>       0.24920104       0.35467997       0.06941862 </v>
   <v>       0.00025703       0.65014403       0.06336304 </v>
   <v>       0.50169804       0.33820825       0.31816816 </v>
   <v>       0.24854851       0.67357744       0.31042470 </v>
   <v>       0.74999715       0.35396819       0.06781056 </v>
   <v>       0.50350450       0.65658045       0.06455944 </v>
   <v>       0.00039758       0.35791943       0.31776355 </v>
   <v>       0.75076250       0.62965229       0.31202069 </v>
   <v>       0.25107357       0.35205644       0.56772419 </v>
   <v>       0.00103595       0.66104909       0.55984562 </v>
   <v>       0.49963683       0.34599598       0.81972521 </v>
   <v>       0.25209443       0.64178863       0.81415809 </v>
   <v>       0.75099386       0.32785773       0.56405537 </v>
   <v>       0.50396080       0.68976969       0.56265032 </v>
   <v>      -0.00189736       0.33162434       0.81784822 </v>
   <v>       0.75482414       0.71948274       0.81153403 </v>
   <v>       0.52313508       0.09329469       0.08489000 </v>
   <v>       0.22371022       0.90654358       0.06781110 </v>
   <v>       0.25823333       0.09033921       0.28110657 </v>
   <v>      -0.01199032       0.90842098       0.29334534 </v>
   <v>       0.01499007       0.09954217       0.09558433 </v>
   <v>       0.75139953       0.89738077       0.09958407 </v>
   <v>       0.77807864       0.08761586       0.29098239 </v>
   <v>       0.51849812       0.90709979       0.29734516 </v>
   <v>       0.48440539       0.09212889       0.58839763 </v>
   <v>       0.24564208       0.90597673       0.60342192 </v>
   <v>       0.24399165       0.09610244       0.79516320 </v>
   <v>       0.01939482       0.91232043       0.81022568 </v>
   <v>      -0.00907175       0.08434759       0.54594921 </v>
   <v>       0.75477953       0.89768526       0.51690279 </v>
   <v>       0.72858770       0.09166219       0.84170414 </v>
   <v>       0.47295910       0.91157799       0.81679762 </v>
  </varray>
 </structure>
</modeling>
