<?xml version="1.0" encoding="ISO-8859-1"?>
<modeling>
 <generator>
  <i name="program" type="string">vasp </i>
  <i name="version" type="string">5.4.4.18Apr17-6-g9f103f2a35  </i>
  <i name="subversion" type="string">(build Jul 31 2017 11:33:29) complex            parallel </i>
  <i name="platform" type="string">LinuxIFC </i>
  <i name="date" type="string">2021 09 29 </i>
  <i name="time" type="string">14:40:40 </i>
 </generator>
 <incar>
  <i type="string" name="SYSTEM"> La2O2S</i>
  <i type="string" name="PREC">normal</i>
  <i type="int" name="NELMIN">     4</i>
  <i type="int" name="IBRION">     2</i>
  <i type="int" name="NFREE">    10</i>
  <i name="EDIFF">      0.00000100</i>
  <i name="EDIFFG">     -0.01000000</i>
  <i type="int" name="NSW">     1</i>
  <i type="int" name="ISIF">     2</i>
  <i name="ENCUT">    600.00000000</i>
  <i name="ENAUG">    900.00000000</i>
  <i type="int" name="ISMEAR">    -5</i>
  <i type="logical" name="LWAVE"> F  </i>
  <i type="logical" name="LCHARG"> F  </i>
  <v type="int" name="KPOINT_BSE">    -1     0     0     0</v>
 </incar>
 <structure name="primitive_cell" >
  <crystal>
   <varray name="basis" >
    <v>      11.17850000       0.00000000       0.00000000 </v>
    <v>       0.00000000       9.57460000       0.00000000 </v>
    <v>       0.00000000       0.00000000      11.18240000 </v>
   </varray>
   <i name="volume">   1196.84853820 </i>
   <varray name="rec_basis" >
    <v>       0.08945744       0.00000000       0.00000000 </v>
    <v>       0.00000000       0.10444301       0.00000000 </v>
    <v>       0.00000000       0.00000000       0.08942624 </v>
   </varray>
  </crystal>
  <varray name="positions" >
   <v>       0.37539000       0.00017000       0.43687000 </v>
   <v>      -0.49987000      -0.07798000       0.31246000 </v>
   <v>       0.25013000       0.07798000       0.31246000 </v>
   <v>       0.49987000       0.07798000      -0.43754000 </v>
   <v>       0.24987000      -0.07798000      -0.43754000 </v>
   <v>       0.37461000       0.00017000       0.18687000 </v>
   <v>       0.37461000       0.00017000      -0.31313000 </v>
   <v>       0.49987000      -0.29519000       0.31282000 </v>
   <v>       0.24987000       0.29519000       0.31282000 </v>
   <v>      -0.49987000       0.29519000      -0.43719000 </v>
   <v>       0.25013000      -0.29519000      -0.43719000 </v>
   <v>       0.49995000       0.32677000       0.31286000 </v>
   <v>       0.24995000      -0.32677000       0.31286000 </v>
   <v>      -0.49995000      -0.32677000      -0.43714000 </v>
   <v>       0.25005000       0.32677000      -0.43714000 </v>
   <v>      -0.37539000      -0.00016000       0.18687000 </v>
   <v>      -0.37539000      -0.00016000      -0.31313000 </v>
   <v>       0.12461000      -0.00016000       0.18687000 </v>
   <v>       0.12461000      -0.00016000      -0.31313000 </v>
   <v>       0.49987000       0.07798000       0.06246000 </v>
   <v>      -0.24987000       0.07798000       0.31246000 </v>
   <v>      -0.25013000      -0.07798000      -0.43754000 </v>
   <v>       0.24987000      -0.07798000       0.06246000 </v>
   <v>       0.00013000      -0.07798000       0.31246000 </v>
   <v>      -0.49987000      -0.07798000      -0.18754000 </v>
   <v>      -0.00013000       0.07798000      -0.43754000 </v>
   <v>       0.25013000       0.07798000      -0.18754000 </v>
   <v>      -0.49987000       0.29519000       0.06281000 </v>
   <v>      -0.25013000       0.29519000       0.31282000 </v>
   <v>       0.25013000      -0.29519000       0.06281000 </v>
   <v>      -0.24987000      -0.29519000      -0.43719000 </v>
   <v>      -0.00013000      -0.29519000       0.31282000 </v>
   <v>       0.00013000       0.29519000      -0.43719000 </v>
   <v>       0.49987000      -0.29519000      -0.18718000 </v>
   <v>       0.24987000       0.29519000      -0.18718000 </v>
   <v>      -0.49995000      -0.32677000       0.06286000 </v>
   <v>       0.25005000       0.32677000       0.06286000 </v>
   <v>      -0.25005000      -0.32677000       0.31286000 </v>
   <v>      -0.24995000       0.32677000      -0.43714000 </v>
   <v>      -0.00005000       0.32677000       0.31286000 </v>
   <v>       0.00005000      -0.32677000      -0.43714000 </v>
   <v>       0.49995000       0.32677000      -0.18714000 </v>
   <v>       0.24995000      -0.32677000      -0.18714000 </v>
   <v>      -0.12461000       0.00017000       0.43687000 </v>
   <v>       0.37539000       0.00017000      -0.06313000 </v>
   <v>      -0.25013000      -0.07798000       0.06246000 </v>
   <v>      -0.00013000       0.07798000       0.06246000 </v>
   <v>      -0.24987000       0.07798000      -0.18754000 </v>
   <v>       0.00013000      -0.07798000      -0.18754000 </v>
   <v>       0.12539000      -0.00016000      -0.06313000 </v>
   <v>      -0.24987000      -0.29519000       0.06281000 </v>
   <v>       0.00013000       0.29519000       0.06281000 </v>
   <v>      -0.25013000       0.29519000      -0.18718000 </v>
   <v>      -0.00013000      -0.29519000      -0.18718000 </v>
   <v>      -0.24995000       0.32677000       0.06286000 </v>
   <v>       0.00005000      -0.32677000       0.06286000 </v>
   <v>      -0.25005000      -0.32677000      -0.18714000 </v>
   <v>      -0.00005000       0.32677000      -0.18714000 </v>
   <v>      -0.12461000       0.00017000      -0.06313000 </v>
  </varray>
 </structure>
 <varray name="primitive_index" >
  <v type="int" >        1 </v>
  <v type="int" >       51 </v>
  <v type="int" >       46 </v>
  <v type="int" >       52 </v>
  <v type="int" >       53 </v>
  <v type="int" >        3 </v>
  <v type="int" >        6 </v>
  <v type="int" >       15 </v>
  <v type="int" >       14 </v>
  <v type="int" >       24 </v>
  <v type="int" >       21 </v>
  <v type="int" >       30 </v>
  <v type="int" >       31 </v>
  <v type="int" >       41 </v>
  <v type="int" >       36 </v>
  <v type="int" >        8 </v>
  <v type="int" >       11 </v>
  <v type="int" >        2 </v>
  <v type="int" >        5 </v>
  <v type="int" >       44 </v>
  <v type="int" >       50 </v>
  <v type="int" >       57 </v>
  <v type="int" >       45 </v>
  <v type="int" >       47 </v>
  <v type="int" >       59 </v>
  <v type="int" >       56 </v>
  <v type="int" >       54 </v>
  <v type="int" >       16 </v>
  <v type="int" >       18 </v>
  <v type="int" >       13 </v>
  <v type="int" >       25 </v>
  <v type="int" >       19 </v>
  <v type="int" >       20 </v>
  <v type="int" >       23 </v>
  <v type="int" >       22 </v>
  <v type="int" >       33 </v>
  <v type="int" >       28 </v>
  <v type="int" >       35 </v>
  <v type="int" >       40 </v>
  <v type="int" >       34 </v>
  <v type="int" >       37 </v>
  <v type="int" >       38 </v>
  <v type="int" >       39 </v>
  <v type="int" >        7 </v>
  <v type="int" >        9 </v>
  <v type="int" >       49 </v>
  <v type="int" >       48 </v>
  <v type="int" >       58 </v>
  <v type="int" >       55 </v>
  <v type="int" >        4 </v>
  <v type="int" >       17 </v>
  <v type="int" >       12 </v>
  <v type="int" >       26 </v>
  <v type="int" >       27 </v>
  <v type="int" >       32 </v>
  <v type="int" >       29 </v>
  <v type="int" >       43 </v>
  <v type="int" >       42 </v>
  <v type="int" >       10 </v>
 </varray>
 <kpoints>
  <generation param="Gamma">
   <v type="int" name="divisions">       2        2        2 </v>
   <v name="usershift">      0.00000000       0.00000000       0.00000000 </v>
   <v name="genvec1">      0.50000000       0.00000000       0.00000000 </v>
   <v name="genvec2">      0.00000000       0.50000000       0.00000000 </v>
   <v name="genvec3">      0.00000000       0.00000000       0.50000000 </v>
   <v name="shift">      0.00000000       0.00000000       0.00000000 </v>
  </generation>
  <varray name="kpointlist" >
   <v>       0.00000000       0.00000000       0.00000000 </v>
   <v>       0.50000000       0.00000000       0.00000000 </v>
   <v>       0.00000000       0.50000000       0.00000000 </v>
   <v>       0.50000000       0.50000000       0.00000000 </v>
   <v>       0.00000000       0.00000000       0.50000000 </v>
   <v>       0.50000000       0.00000000       0.50000000 </v>
   <v>       0.00000000       0.50000000       0.50000000 </v>
   <v>       0.50000000       0.50000000       0.50000000 </v>
  </varray>
  <varray name="weights" >
   <v>       0.12500000 </v>
   <v>       0.12500000 </v>
   <v>       0.12500000 </v>
   <v>       0.12500000 </v>
   <v>       0.12500000 </v>
   <v>       0.12500000 </v>
   <v>       0.12500000 </v>
   <v>       0.12500000 </v>
  </varray>
  <varray name="tetrahedronlist"  type="int" >
   <v type="int" >        2        1        2        4        5 </v>
   <v type="int" >        2        1        3        4        5 </v>
   <v type="int" >        2        3        4        5        7 </v>
   <v type="int" >        2        2        4        5        6 </v>
   <v type="int" >        2        4        5        6        8 </v>
   <v type="int" >        2        4        5        7        8 </v>
   <v type="int" >        2        1        2        3        6 </v>
   <v type="int" >        2        2        3        4        6 </v>
   <v type="int" >        2        3        4        6        8 </v>
   <v type="int" >        2        1        3        5        6 </v>
   <v type="int" >        2        3        5        6        7 </v>
   <v type="int" >        2        3        6        7        8 </v>
   <v type="int" >        2        2        3        4        7 </v>
   <v type="int" >        2        1        2        3        7 </v>
   <v type="int" >        2        1        2        5        7 </v>
   <v type="int" >        2        2        4        7        8 </v>
   <v type="int" >        2        2        6        7        8 </v>
   <v type="int" >        2        2        5        6        7 </v>
   <v type="int" >        2        1        3        4        8 </v>
   <v type="int" >        2        1        2        4        8 </v>
   <v type="int" >        2        1        2        6        8 </v>
   <v type="int" >        2        1        3        7        8 </v>
   <v type="int" >        2        1        5        7        8 </v>
   <v type="int" >        2        1        5        6        8 </v>
  </varray>
  <i name="volumeweight">      0.02083333 </i>
 </kpoints>
 <parameters>
  <separator name="general" >
   <i type="string" name="SYSTEM">La2O2S</i>
   <i type="logical" name="LCOMPAT"> F  </i>
  </separator>
  <separator name="electronic" >
   <i type="string" name="PREC">normal</i>
   <i name="ENMAX">    600.00000000</i>
   <i name="ENAUG">    900.00000000</i>
   <i name="EDIFF">      0.00000100</i>
   <i type="int" name="IALGO">    38</i>
   <i type="int" name="IWAVPR">    11</i>
   <i type="int" name="NBANDS">   280</i>
   <i name="NELECT">    460.00000000</i>
   <i type="int" name="TURBO">     0</i>
   <i type="int" name="IRESTART">     0</i>
   <i type="int" name="NREBOOT">     0</i>
   <i type="int" name="NMIN">     0</i>
   <i name="EREF">      0.00000000</i>
   <separator name="electronic smearing" >
    <i type="int" name="ISMEAR">    -5</i>
    <i name="SIGMA">      0.20000000</i>
    <i name="KSPACING">      0.50000000</i>
    <i type="logical" name="KGAMMA"> T  </i>
   </separator>
   <separator name="electronic projectors" >
    <i type="logical" name="LREAL"> F  </i>
    <v name="ROPT">      0.00000000      0.00000000      0.00000000      0.00000000      0.00000000</v>
    <i type="int" name="LMAXPAW">  -100</i>
    <i type="int" name="LMAXMIX">     2</i>
    <i type="logical" name="NLSPLINE"> F  </i>
   </separator>
   <separator name="electronic startup" >
    <i type="int" name="ISTART">     0</i>
    <i type="int" name="ICHARG">     2</i>
    <i type="int" name="INIWAV">     1</i>
   </separator>
   <separator name="electronic spin" >
    <i type="int" name="ISPIN">     1</i>
    <i type="logical" name="LNONCOLLINEAR"> F  </i>
    <v name="MAGMOM">      1.00000000      1.00000000      1.00000000      1.00000000      1.00000000      1.00000000      1.00000000      1.00000000      1.00000000      1.00000000      1.00000000      1.00000000      1.00000000      1.00000000      1.00000000      1.00000000      1.00000000      1.00000000      1.00000000      1.00000000
      1.00000000      1.00000000      1.00000000      1.00000000      1.00000000      1.00000000      1.00000000      1.00000000      1.00000000      1.00000000      1.00000000      1.00000000      1.00000000      1.00000000      1.00000000      1.00000000      1.00000000      1.00000000      1.00000000      1.00000000
      1.00000000      1.00000000      1.00000000      1.00000000      1.00000000      1.00000000      1.00000000      1.00000000      1.00000000      1.00000000      1.00000000      1.00000000      1.00000000      1.00000000      1.00000000      1.00000000      1.00000000      1.00000000      1.00000000</v>
    <i name="NUPDOWN">     -1.00000000</i>
    <i type="logical" name="LSORBIT"> F  </i>
    <v name="SAXIS">      0.00000000      0.00000000      1.00000000</v>
    <i type="logical" name="LSPIRAL"> F  </i>
    <v name="QSPIRAL">      0.00000000      0.00000000      0.00000000</v>
    <i type="logical" name="LZEROZ"> F  </i>
   </separator>
   <separator name="electronic exchange-correlation" >
    <i type="logical" name="LASPH"> F  </i>
    <i type="logical" name="LMETAGGA"> F  </i>
   </separator>
   <separator name="electronic convergence" >
    <i type="int" name="NELM">    60</i>
    <i type="int" name="NELMDL">    -5</i>
    <i type="int" name="NELMIN">     4</i>
    <i name="ENINI">    600.00000000</i>
    <separator name="electronic convergence detail" >
     <i type="logical" name="LDIAG"> T  </i>
     <i type="logical" name="LSUBROT"> F  </i>
     <i name="WEIMIN">      0.00100000</i>
     <i name="EBREAK">      0.00000000</i>
     <i name="DEPER">      0.30000000</i>
     <i type="int" name="NRMM">     4</i>
     <i name="TIME">      0.40000000</i>
    </separator>
   </separator>
   <separator name="electronic mixer" >
    <i name="AMIX">      0.40000000</i>
    <i name="BMIX">      1.00000000</i>
    <i name="AMIN">      0.10000000</i>
    <i name="AMIX_MAG">      1.60000000</i>
    <i name="BMIX_MAG">      1.00000000</i>
    <separator name="electronic mixer details" >
     <i type="int" name="IMIX">     4</i>
     <i type="logical" name="MIXFIRST"> F  </i>
     <i type="int" name="MAXMIX">   -45</i>
     <i name="WC">    100.00000000</i>
     <i type="int" name="INIMIX">     1</i>
     <i type="int" name="MIXPRE">     1</i>
     <i type="int" name="MREMOVE">     5</i>
    </separator>
   </separator>
   <separator name="electronic dipolcorrection" >
    <i type="logical" name="LDIPOL"> F  </i>
    <i type="logical" name="LMONO"> F  </i>
    <i type="int" name="IDIPOL">     0</i>
    <i name="EPSILON">      1.00000000</i>
    <v name="DIPOL">   -100.00000000   -100.00000000   -100.00000000</v>
    <i name="EFIELD">      0.00000000</i>
   </separator>
  </separator>
  <separator name="grids" >
   <i type="int" name="NGX">    70</i>
   <i type="int" name="NGY">    60</i>
   <i type="int" name="NGZ">    70</i>
   <i type="int" name="NGXF">   140</i>
   <i type="int" name="NGYF">   120</i>
   <i type="int" name="NGZF">   140</i>
   <i type="logical" name="ADDGRID"> F  </i>
  </separator>
  <separator name="ionic" >
   <i type="int" name="NSW">     1</i>
   <i type="int" name="IBRION">     2</i>
   <i type="int" name="MDALGO">     0</i>
   <i type="int" name="ISIF">     2</i>
   <i name="PSTRESS">      0.00000000</i>
   <i name="EDIFFG">     -0.01000000</i>
   <i type="int" name="NFREE">    10</i>
   <i name="POTIM">      0.50000000</i>
   <i name="SMASS">     -3.00000000</i>
   <i name="SCALEE">      1.00000000</i>
  </separator>
  <separator name="ionic md" >
   <i name="TEBEG">      0.00010000</i>
   <i name="TEEND">      0.00010000</i>
   <i type="int" name="NBLOCK">     1</i>
   <i type="int" name="KBLOCK">     1</i>
   <i type="int" name="NPACO">   256</i>
   <i name="APACO">     16.00000000</i>
  </separator>
  <separator name="symmetry" >
   <i type="int" name="ISYM">     2</i>
   <i name="SYMPREC">      0.00001000</i>
  </separator>
  <separator name="dos" >
   <i type="int" name="LORBIT">     0</i>
   <v name="RWIGS">     -1.00000000     -1.00000000     -1.00000000     -1.00000000     -1.00000000</v>
   <i type="int" name="NEDOS">   301</i>
   <i name="EMIN">     10.00000000</i>
   <i name="EMAX">    -10.00000000</i>
   <i name="EFERMI">      0.00000000</i>
  </separator>
  <separator name="writing" >
   <i type="int" name="NWRITE">     2</i>
   <i type="logical" name="LWAVE"> F  </i>
   <i type="logical" name="LDOWNSAMPLE"> F  </i>
   <i type="logical" name="LCHARG"> F  </i>
   <i type="logical" name="LPARD"> F  </i>
   <i type="logical" name="LVTOT"> F  </i>
   <i type="logical" name="LVHAR"> F  </i>
   <i type="logical" name="LELF"> F  </i>
   <i type="logical" name="LOPTICS"> F  </i>
   <v name="STM">      0.00000000      0.00000000      0.00000000      0.00000000      0.00000000      0.00000000      0.00000000</v>
  </separator>
  <separator name="performance" >
   <i type="int" name="NPAR">    28</i>
   <i type="int" name="NSIM">     4</i>
   <i type="int" name="NBLK">    -1</i>
   <i type="logical" name="LPLANE"> T  </i>
   <i type="logical" name="LSCALAPACK"> T  </i>
   <i type="logical" name="LSCAAWARE"> F  </i>
   <i type="logical" name="LSCALU"> F  </i>
   <i type="logical" name="LASYNC"> F  </i>
   <i type="logical" name="LORBITALREAL"> F  </i>
  </separator>
  <separator name="miscellaneous" >
   <i type="int" name="IDIOT">     3</i>
   <i type="int" name="ISPECIAL">     0</i>
   <i type="logical" name="LMUSIC"> F  </i>
   <v name="POMASS">      7.01000000     24.30500000    208.98000000     32.06600000     16.00000000</v>
   <v name="DARWINR">      0.00000000      0.00000000      0.00000000      0.00000000      0.00000000</v>
   <v name="DARWINV">      1.00000000      1.00000000      1.00000000      1.00000000      1.00000000</v>
   <i type="logical" name="LCORR"> T  </i>
  </separator>
  <i type="logical" name="GGA_COMPAT"> T  </i>
  <i type="logical" name="LBERRY"> F  </i>
  <i type="int" name="ICORELEVEL">     0</i>
  <i type="logical" name="LDAU"> F  </i>
  <i type="int" name="I_CONSTRAINED_M">     0</i>
  <separator name="electronic exchange-correlation" >
   <i type="string" name="GGA">--</i>
   <i type="int" name="VOSKOWN">     0</i>
   <i type="logical" name="LHFCALC"> F  </i>
   <i type="string" name="PRECFOCK"></i>
   <i type="logical" name="LSYMGRAD"> F  </i>
   <i type="logical" name="LHFONE"> F  </i>
   <i type="logical" name="LRHFCALC"> F  </i>
   <i type="logical" name="LTHOMAS"> F  </i>
   <i type="logical" name="LMODELHF"> F  </i>
   <i name="ENCUT4O">     -1.00000000</i>
   <i type="int" name="EXXOEP">     0</i>
   <i type="int" name="FOURORBIT">     0</i>
   <i name="AEXX">      0.00000000</i>
   <i name="HFALPHA">      0.00000000</i>
   <i name="MCALPHA">      0.00000000</i>
   <i name="ALDAX">      1.00000000</i>
   <i name="AGGAX">      1.00000000</i>
   <i name="ALDAC">      1.00000000</i>
   <i name="AGGAC">      1.00000000</i>
   <i type="int" name="NKREDX">     1</i>
   <i type="int" name="NKREDY">     1</i>
   <i type="int" name="NKREDZ">     1</i>
   <i type="logical" name="SHIFTRED"> F  </i>
   <i type="logical" name="ODDONLY"> F  </i>
   <i type="logical" name="EVENONLY"> F  </i>
   <i type="int" name="LMAXFOCK">     0</i>
   <i type="int" name="NMAXFOCKAE">     0</i>
   <i type="logical" name="LFOCKAEDFT"> F  </i>
   <i name="HFSCREEN">      0.00000000</i>
   <i name="HFSCREENC">      0.00000000</i>
   <i type="int" name="NBANDSGWLOW">     0</i>
  </separator>
  <separator name="vdW DFT" >
   <i type="logical" name="LUSE_VDW"> F  </i>
   <i name="Zab_VDW">     -0.84910000</i>
   <i name="PARAM1">      0.12340000</i>
   <i name="PARAM2">      1.00000000</i>
   <i name="PARAM3">      0.00000000</i>
  </separator>
  <separator name="model GW" >
   <i type="int" name="MODEL_GW">     0</i>
   <i name="MODEL_EPS0">     12.17134107</i>
   <i name="MODEL_ALPHA">      1.00000000</i>
  </separator>
  <separator name="linear response parameters" >
   <i type="logical" name="LEPSILON"> F  </i>
   <i type="logical" name="LRPA"> F  </i>
   <i type="logical" name="LNABLA"> F  </i>
   <i type="logical" name="LVEL"> F  </i>
   <i type="int" name="KINTER">     0</i>
   <i name="CSHIFT">      0.10000000</i>
   <i name="OMEGAMAX">     -1.00000000</i>
   <i name="DEG_THRESHOLD">      0.00200000</i>
   <i name="RTIME">     -0.10000000</i>
   <i name="WPLASMAI">      0.00000000</i>
   <v name="DFIELD">      0.00000000      0.00000000      0.00000000</v>
   <v name="WPLASMA">      0.00000000      0.00000000      0.00000000      0.00000000      0.00000000      0.00000000      0.00000000      0.00000000      0.00000000</v>
  </separator>
  <separator name="orbital magnetization" >
   <i type="logical" name="NUCIND"> F  </i>
   <v name="MAGPOS">      0.00000000      0.00000000      0.00000000</v>
   <i type="logical" name="LNICSALL"> T  </i>
   <i type="logical" name="ORBITALMAG"> F  </i>
   <i type="logical" name="LMAGBLOCH"> F  </i>
   <i type="logical" name="LCHIMAG"> F  </i>
   <i type="logical" name="LGAUGE"> T  </i>
   <i type="int" name="MAGATOM">     0</i>
   <v name="MAGDIPOL">      0.00000000      0.00000000      0.00000000</v>
   <v name="AVECCONST">      0.00000000      0.00000000      0.00000000</v>
  </separator>
  <separator name="response functions" >
   <i type="logical" name="LADDER"> F  </i>
   <i type="logical" name="LRPAFORCE"> F  </i>
   <i type="logical" name="LFXC"> F  </i>
   <i type="logical" name="LHARTREE"> T  </i>
   <i type="int" name="IBSE">     0</i>
   <v type="int" name="KPOINT">    -1     0     0     0</v>
   <i type="logical" name="LTCTE"> F  </i>
   <i type="logical" name="LTETE"> F  </i>
   <i type="logical" name="LTRIPLET"> F  </i>
   <i type="logical" name="LFXCEPS"> F  </i>
   <i type="logical" name="LFXHEG"> F  </i>
   <i type="int" name="NATURALO">     2</i>
   <i type="logical" name="L2ORDER"> F  </i>
   <i type="logical" name="LMP2LT"> F  </i>
   <i type="logical" name="LUSEW"> F  </i>
   <i name="ENCUTGW">     -2.00000000</i>
   <i name="ENCUTGWSOFT">     -2.00000000</i>
   <i name="ENCUTLF">     -1.00000000</i>
   <i type="int" name="LMAXMP2">    -1</i>
   <i name="SCISSOR">      0.00000000</i>
   <i type="int" name="NOMEGA">     0</i>
   <i type="int" name="NOMEGAR">     0</i>
   <i type="int" name="NBANDSGW">    -1</i>
   <i type="int" name="NBANDSO">    -1</i>
   <i type="int" name="NBANDSV">    -1</i>
   <i type="int" name="NELM">     1</i>
   <i type="int" name="NELMHF">     1</i>
   <i type="int" name="DIM">     3</i>
   <i type="int" name="ANTIRES">     0</i>
   <i name="OMEGAMAX">    -30.00000000</i>
   <i name="OMEGAMIN">    -30.00000000</i>
   <i name="OMEGATL">   -200.00000000</i>
   <i type="int" name="OMEGAGRID">   140</i>
   <i name="CSHIFT">     -0.10000000</i>
   <i type="logical" name="SELFENERGY"> F  </i>
   <i type="logical" name="LSPECTRAL"> F  </i>
   <i type="logical" name="LSPECTRALGW"> F  </i>
   <i type="logical" name="LSINGLES"> F  </i>
   <i type="logical" name="LFERMIGW"> F  </i>
   <i type="logical" name="ODDONLYGW"> F  </i>
   <i type="logical" name="EVENONLYGW"> F  </i>
   <i type="int" name="NKREDLFX">     1</i>
   <i type="int" name="NKREDLFY">     1</i>
   <i type="int" name="NKREDLFZ">     1</i>
   <i type="int" name="MAXMEM">  2800</i>
   <i type="int" name="TELESCOPE">     0</i>
   <i type="int" name="TAUPAR">     1</i>
   <i type="int" name="OMEGAPAR">    -1</i>
   <i name="LAMBDA">      1.00000000</i>
  </separator>
  <separator name="External order field" >
   <i name="OFIELD_KAPPA">      0.00000000</i>
   <v name="OFIELD_K">      0.00000000      0.00000000      0.00000000</v>
   <i name="OFIELD_Q6_NEAR">      0.00000000</i>
   <i name="OFIELD_Q6_FAR">      0.00000000</i>
   <i name="OFIELD_A">      0.00000000</i>
  </separator>
 </parameters>
 <atominfo>
  <atoms>      59 </atoms>
  <types>       5 </types>
  <array name="atoms" >
   <dimension dim="1">ion</dimension>
   <field type="string">element</field>
   <field type="int">atomtype</field>
   <set>
    <rc><c>Li</c><c>   1</c></rc>
    <rc><c>Li</c><c>   1</c></rc>
    <rc><c>Li</c><c>   1</c></rc>
    <rc><c>Li</c><c>   1</c></rc>
    <rc><c>Li</c><c>   1</c></rc>
    <rc><c>Li</c><c>   1</c></rc>
    <rc><c>Mg</c><c>   2</c></rc>
    <rc><c>Mg</c><c>   2</c></rc>
    <rc><c>Mg</c><c>   2</c></rc>
    <rc><c>Mg</c><c>   2</c></rc>
    <rc><c>Mg</c><c>   2</c></rc>
    <rc><c>Bi</c><c>   3</c></rc>
    <rc><c>Bi</c><c>   3</c></rc>
    <rc><c>Bi</c><c>   3</c></rc>
    <rc><c>Bi</c><c>   3</c></rc>
    <rc><c>Bi</c><c>   3</c></rc>
    <rc><c>Bi</c><c>   3</c></rc>
    <rc><c>Bi</c><c>   3</c></rc>
    <rc><c>Bi</c><c>   3</c></rc>
    <rc><c>Bi</c><c>   3</c></rc>
    <rc><c>Bi</c><c>   3</c></rc>
    <rc><c>Bi</c><c>   3</c></rc>
    <rc><c>Bi</c><c>   3</c></rc>
    <rc><c>Bi</c><c>   3</c></rc>
    <rc><c>Bi</c><c>   3</c></rc>
    <rc><c>Bi</c><c>   3</c></rc>
    <rc><c>Bi</c><c>   3</c></rc>
    <rc><c>S </c><c>   4</c></rc>
    <rc><c>S </c><c>   4</c></rc>
    <rc><c>S </c><c>   4</c></rc>
    <rc><c>S </c><c>   4</c></rc>
    <rc><c>S </c><c>   4</c></rc>
    <rc><c>S </c><c>   4</c></rc>
    <rc><c>S </c><c>   4</c></rc>
    <rc><c>S </c><c>   4</c></rc>
    <rc><c>S </c><c>   4</c></rc>
    <rc><c>S </c><c>   4</c></rc>
    <rc><c>S </c><c>   4</c></rc>
    <rc><c>S </c><c>   4</c></rc>
    <rc><c>S </c><c>   4</c></rc>
    <rc><c>S </c><c>   4</c></rc>
    <rc><c>S </c><c>   4</c></rc>
    <rc><c>S </c><c>   4</c></rc>
    <rc><c>O </c><c>   5</c></rc>
    <rc><c>O </c><c>   5</c></rc>
    <rc><c>O </c><c>   5</c></rc>
    <rc><c>O </c><c>   5</c></rc>
    <rc><c>O </c><c>   5</c></rc>
    <rc><c>O </c><c>   5</c></rc>
    <rc><c>O </c><c>   5</c></rc>
    <rc><c>O </c><c>   5</c></rc>
    <rc><c>O </c><c>   5</c></rc>
    <rc><c>O </c><c>   5</c></rc>
    <rc><c>O </c><c>   5</c></rc>
    <rc><c>O </c><c>   5</c></rc>
    <rc><c>O </c><c>   5</c></rc>
    <rc><c>O </c><c>   5</c></rc>
    <rc><c>O </c><c>   5</c></rc>
    <rc><c>O </c><c>   5</c></rc>
   </set>
  </array>
  <array name="atomtypes" >
   <dimension dim="1">type</dimension>
   <field type="int">atomspertype</field>
   <field type="string">element</field>
   <field>mass</field>
   <field>valence</field>
   <field type="string">pseudopotential</field>
   <set>
    <rc><c>   6</c><c>Li</c><c>      7.01000000</c><c>      3.00000000</c><c>  PAW_PBE Li_sv 10Sep2004               </c></rc>
    <rc><c>   5</c><c>Mg</c><c>     24.30500000</c><c>      2.00000000</c><c>  PAW_PBE Mg 13Apr2007                  </c></rc>
    <rc><c>  16</c><c>Bi</c><c>    208.98000000</c><c>     15.00000000</c><c>  PAW_PBE Bi_d 06Sep2000                </c></rc>
    <rc><c>  16</c><c>S </c><c>     32.06600000</c><c>      6.00000000</c><c>  PAW_PBE S 06Sep2000                   </c></rc>
    <rc><c>  16</c><c>O </c><c>     16.00000000</c><c>      6.00000000</c><c>  PAW_PBE O 08Apr2002                   </c></rc>
   </set>
  </array>
 </atominfo>
 <structure name="initialpos" >
  <crystal>
   <varray name="basis" >
    <v>      11.17850000       0.00000000       0.00000000 </v>
    <v>       0.00000000       9.57460000       0.00000000 </v>
    <v>       0.00000000       0.00000000      11.18240000 </v>
   </varray>
   <i name="volume">   1196.84853820 </i>
   <varray name="rec_basis" >
    <v>       0.08945744       0.00000000       0.00000000 </v>
    <v>       0.00000000       0.10444301       0.00000000 </v>
    <v>       0.00000000       0.00000000       0.08942624 </v>
   </varray>
  </crystal>
  <varray name="positions" >
   <v>       0.37539000       0.00017000       0.43687000 </v>
   <v>       0.12461000       0.99984000       0.18687000 </v>
   <v>       0.37461000       0.00017000       0.18687000 </v>
   <v>       0.12539000       0.99984000       0.93687000 </v>
   <v>       0.12461000       0.99984000       0.68687000 </v>
   <v>       0.37461000       0.00017000       0.68687000 </v>
   <v>       0.87539000       0.00017000       0.43687000 </v>
   <v>       0.62461000       0.99984000       0.18687000 </v>
   <v>       0.37539000       0.00017000       0.93687000 </v>
   <v>       0.87539000       0.00017000       0.93687000 </v>
   <v>       0.62461000       0.99984000       0.68687000 </v>
   <v>       0.00013000       0.29519000       0.06281000 </v>
   <v>       0.25013000       0.70481000       0.06281000 </v>
   <v>       0.24987000       0.29519000       0.31282000 </v>
   <v>       0.49987000       0.70481000       0.31282000 </v>
   <v>       0.50013000       0.29519000       0.06281000 </v>
   <v>       0.75013000       0.70481000       0.06281000 </v>
   <v>       0.74987000       0.29519000       0.31282000 </v>
   <v>       0.99987000       0.70481000       0.31282000 </v>
   <v>       0.00013000       0.29519000       0.56281000 </v>
   <v>       0.25013000       0.70481000       0.56281000 </v>
   <v>       0.24987000       0.29519000       0.81282000 </v>
   <v>       0.49987000       0.70481000       0.81282000 </v>
   <v>       0.50013000       0.29519000       0.56281000 </v>
   <v>       0.75013000       0.70481000       0.56281000 </v>
   <v>       0.74987000       0.29519000       0.81282000 </v>
   <v>       0.99987000       0.70481000       0.81282000 </v>
   <v>       0.25005000       0.32677000       0.06286000 </v>
   <v>       0.00005000       0.67323000       0.06286000 </v>
   <v>       0.49995000       0.32677000       0.31286000 </v>
   <v>       0.24995000       0.67323000       0.31286000 </v>
   <v>       0.75005000       0.32677000       0.06286000 </v>
   <v>       0.50005000       0.67323000       0.06286000 </v>
   <v>       0.99995000       0.32677000       0.31286000 </v>
   <v>       0.74995000       0.67323000       0.31286000 </v>
   <v>       0.25005000       0.32677000       0.56286000 </v>
   <v>       0.00005000       0.67323000       0.56286000 </v>
   <v>       0.49995000       0.32677000       0.81286000 </v>
   <v>       0.24995000       0.67323000       0.81286000 </v>
   <v>       0.75005000       0.32677000       0.56286000 </v>
   <v>       0.50005000       0.67323000       0.56286000 </v>
   <v>       0.99995000       0.32677000       0.81286000 </v>
   <v>       0.74995000       0.67323000       0.81286000 </v>
   <v>       0.49987000       0.07798000       0.06246000 </v>
   <v>       0.24987000       0.92202000       0.06246000 </v>
   <v>       0.25013000       0.07798000       0.31246000 </v>
   <v>       0.00013000       0.92202000       0.31246000 </v>
   <v>       0.99987000       0.07798000       0.06246000 </v>
   <v>       0.74987000       0.92202000       0.06246000 </v>
   <v>       0.75013000       0.07798000       0.31246000 </v>
   <v>       0.50013000       0.92202000       0.31246000 </v>
   <v>       0.49987000       0.07798000       0.56246000 </v>
   <v>       0.24987000       0.92202000       0.56246000 </v>
   <v>       0.25013000       0.07798000       0.81246000 </v>
   <v>       0.00013000       0.92202000       0.81246000 </v>
   <v>       0.99987000       0.07798000       0.56246000 </v>
   <v>       0.74987000       0.92202000       0.56246000 </v>
   <v>       0.75013000       0.07798000       0.81246000 </v>
   <v>       0.50013000       0.92202000       0.81246000 </v>
  </varray>
 </structure>
 <calculation>
  <scstep>
   <time name="dav">   60.72   60.74</time>
   <time name="total">   60.80   60.83</time>
   <energy>
    <i name="alphaZ">   1060.66890660 </i>
    <i name="ewald"> -30400.30843346 </i>
    <i name="hartreedc"> -12718.62539029 </i>
    <i name="XCdc">   1247.15084799 </i>
    <i name="pawpsdc">  36635.26894311 </i>
    <i name="pawaedc"> -35972.74895369 </i>
    <i name="eentropy">      0.00000000 </i>
    <i name="bandstr">   1864.08931863 </i>
    <i name="atom">  44026.03258983 </i>
    <i name="e_fr_energy">   5741.52782871 </i>
    <i name="e_wo_entrp">   5741.52782871 </i>
    <i name="e_0_energy">   5741.52782871 </i>
   </energy>
  </scstep>
  <scstep>
   <time name="dav">   61.02   61.11</time>
   <time name="total">   61.03   61.12</time>
   <energy>
    <i name="e_fr_energy">    760.78579850 </i>
    <i name="e_wo_entrp">    760.78579850 </i>
    <i name="e_0_energy">    760.78579850 </i>
   </energy>
  </scstep>
  <scstep>
   <time name="dav">   70.46   70.57</time>
   <time name="total">   70.46   70.57</time>
   <energy>
    <i name="e_fr_energy">   -244.05407714 </i>
    <i name="e_wo_entrp">   -244.05407714 </i>
    <i name="e_0_energy">   -244.05407714 </i>
   </energy>
  </scstep>
  <scstep>
   <time name="dav">   71.97   72.11</time>
   <time name="total">   71.97   72.12</time>
   <energy>
    <i name="e_fr_energy">   -336.87712268 </i>
    <i name="e_wo_entrp">   -336.87712268 </i>
    <i name="e_0_energy">   -336.87712268 </i>
   </energy>
  </scstep>
  <scstep>
   <time name="dav">   95.01   95.27</time>
   <time name="total">   95.74   96.00</time>
   <energy>
    <i name="e_fr_energy">   -344.17243181 </i>
    <i name="e_wo_entrp">   -344.17243181 </i>
    <i name="e_0_energy">   -344.17243181 </i>
   </energy>
  </scstep>
  <scstep>
   <time name="dav">   86.61   86.76</time>
   <time name="total">   87.41   87.56</time>
   <energy>
    <i name="e_fr_energy">   -288.46886007 </i>
    <i name="e_wo_entrp">   -288.46886007 </i>
    <i name="e_0_energy">   -288.46886007 </i>
   </energy>
  </scstep>
  <scstep>
   <time name="dav">   66.10   66.21</time>
   <time name="total">   66.90   67.02</time>
   <energy>
    <i name="e_fr_energy">   -290.83610910 </i>
    <i name="e_wo_entrp">   -290.83610910 </i>
    <i name="e_0_energy">   -290.83610910 </i>
   </energy>
  </scstep>
  <scstep>
   <time name="dav">   77.44   77.53</time>
   <time name="total">   78.24   78.33</time>
   <energy>
    <i name="e_fr_energy">   -289.83145751 </i>
    <i name="e_wo_entrp">   -289.83145751 </i>
    <i name="e_0_energy">   -289.83145751 </i>
   </energy>
  </scstep>
  <scstep>
   <time name="dav">   76.60   76.64</time>
   <time name="total">   77.40   77.44</time>
   <energy>
    <i name="e_fr_energy">   -289.32049658 </i>
    <i name="e_wo_entrp">   -289.32049658 </i>
    <i name="e_0_energy">   -289.32049658 </i>
   </energy>
  </scstep>
  <scstep>
   <time name="dav">   75.05   75.07</time>
   <time name="total">   75.85   75.87</time>
   <energy>
    <i name="e_fr_energy">   -289.34043660 </i>
    <i name="e_wo_entrp">   -289.34043660 </i>
    <i name="e_0_energy">   -289.34043660 </i>
   </energy>
  </scstep>
  <scstep>
   <time name="dav">   80.02   80.02</time>
   <time name="total">   80.82   80.83</time>
   <energy>
    <i name="e_fr_energy">   -289.34607993 </i>
    <i name="e_wo_entrp">   -289.34607993 </i>
    <i name="e_0_energy">   -289.34607993 </i>
   </energy>
  </scstep>
  <scstep>
   <time name="dav">   78.83   78.84</time>
   <time name="total">   79.63   79.64</time>
   <energy>
    <i name="e_fr_energy">   -289.34899274 </i>
    <i name="e_wo_entrp">   -289.34899274 </i>
    <i name="e_0_energy">   -289.34899274 </i>
   </energy>
  </scstep>
  <scstep>
   <time name="dav">   71.43   71.45</time>
   <time name="total">   72.23   72.26</time>
   <energy>
    <i name="e_fr_energy">   -289.35034445 </i>
    <i name="e_wo_entrp">   -289.35034445 </i>
    <i name="e_0_energy">   -289.35034445 </i>
   </energy>
  </scstep>
  <scstep>
   <time name="dav">   81.79   81.80</time>
   <time name="total">   82.60   82.61</time>
   <energy>
    <i name="e_fr_energy">   -289.35058227 </i>
    <i name="e_wo_entrp">   -289.35058227 </i>
    <i name="e_0_energy">   -289.35058227 </i>
   </energy>
  </scstep>
  <scstep>
   <time name="dav">   80.30   80.30</time>
   <time name="total">   81.10   81.11</time>
   <energy>
    <i name="e_fr_energy">   -289.35060618 </i>
    <i name="e_wo_entrp">   -289.35060618 </i>
    <i name="e_0_energy">   -289.35060618 </i>
   </energy>
  </scstep>
  <scstep>
   <time name="dav">   66.19   66.20</time>
   <time name="total">   67.00   67.01</time>
   <energy>
    <i name="e_fr_energy">   -289.35063116 </i>
    <i name="e_wo_entrp">   -289.35063116 </i>
    <i name="e_0_energy">   -289.35063116 </i>
   </energy>
  </scstep>
  <scstep>
   <time name="dav">   73.17   73.20</time>
   <time name="total">   73.98   74.00</time>
   <energy>
    <i name="e_fr_energy">   -289.35063287 </i>
    <i name="e_wo_entrp">   -289.35063287 </i>
    <i name="e_0_energy">   -289.35063287 </i>
   </energy>
  </scstep>
  <scstep>
   <time name="dav">   65.74   65.75</time>
   <time name="total">   65.81   65.82</time>
   <energy>
    <i name="alphaZ">   1060.66890660 </i>
    <i name="ewald"> -30400.30843346 </i>
    <i name="hartreedc"> -12959.66955937 </i>
    <i name="XCdc">   1271.99351924 </i>
    <i name="pawpsdc">  43669.95732868 </i>
    <i name="pawaedc"> -42980.90778917 </i>
    <i name="eentropy">      0.00000000 </i>
    <i name="bandstr">  -3977.11719588 </i>
    <i name="atom">  44026.03258983 </i>
    <i name="e_fr_energy">   -289.35063354 </i>
    <i name="e_wo_entrp">   -289.35063354 </i>
    <i name="e_0_energy">   -289.35063354 </i>
   </energy>
  </scstep>
  <structure>
   <crystal>
    <varray name="basis" >
     <v>      11.17850000       0.00000000       0.00000000 </v>
     <v>       0.00000000       9.57460000       0.00000000 </v>
     <v>       0.00000000       0.00000000      11.18240000 </v>
    </varray>
    <i name="volume">   1196.84853820 </i>
    <varray name="rec_basis" >
     <v>       0.08945744       0.00000000       0.00000000 </v>
     <v>       0.00000000       0.10444301       0.00000000 </v>
     <v>       0.00000000       0.00000000       0.08942624 </v>
    </varray>
   </crystal>
   <varray name="positions" >
    <v>       0.37539000       0.00017000       0.43687000 </v>
    <v>       0.12461000       0.99984000       0.18687000 </v>
    <v>       0.37461000       0.00017000       0.18687000 </v>
    <v>       0.12539000       0.99984000       0.93687000 </v>
    <v>       0.12461000       0.99984000       0.68687000 </v>
    <v>       0.37461000       0.00017000       0.68687000 </v>
    <v>       0.87539000       0.00017000       0.43687000 </v>
    <v>       0.62461000       0.99984000       0.18687000 </v>
    <v>       0.37539000       0.00017000       0.93687000 </v>
    <v>       0.87539000       0.00017000       0.93687000 </v>
    <v>       0.62461000       0.99984000       0.68687000 </v>
    <v>       0.00013000       0.29519000       0.06281000 </v>
    <v>       0.25013000       0.70481000       0.06281000 </v>
    <v>       0.24987000       0.29519000       0.31282000 </v>
    <v>       0.49987000       0.70481000       0.31282000 </v>
    <v>       0.50013000       0.29519000       0.06281000 </v>
    <v>       0.75013000       0.70481000       0.06281000 </v>
    <v>       0.74987000       0.29519000       0.31282000 </v>
    <v>       0.99987000       0.70481000       0.31282000 </v>
    <v>       0.00013000       0.29519000       0.56281000 </v>
    <v>       0.25013000       0.70481000       0.56281000 </v>
    <v>       0.24987000       0.29519000       0.81282000 </v>
    <v>       0.49987000       0.70481000       0.81282000 </v>
    <v>       0.50013000       0.29519000       0.56281000 </v>
    <v>       0.75013000       0.70481000       0.56281000 </v>
    <v>       0.74987000       0.29519000       0.81282000 </v>
    <v>       0.99987000       0.70481000       0.81282000 </v>
    <v>       0.25005000       0.32677000       0.06286000 </v>
    <v>       0.00005000       0.67323000       0.06286000 </v>
    <v>       0.49995000       0.32677000       0.31286000 </v>
    <v>       0.24995000       0.67323000       0.31286000 </v>
    <v>       0.75005000       0.32677000       0.06286000 </v>
    <v>       0.50005000       0.67323000       0.06286000 </v>
    <v>       0.99995000       0.32677000       0.31286000 </v>
    <v>       0.74995000       0.67323000       0.31286000 </v>
    <v>       0.25005000       0.32677000       0.56286000 </v>
    <v>       0.00005000       0.67323000       0.56286000 </v>
    <v>       0.49995000       0.32677000       0.81286000 </v>
    <v>       0.24995000       0.67323000       0.81286000 </v>
    <v>       0.75005000       0.32677000       0.56286000 </v>
    <v>       0.50005000       0.67323000       0.56286000 </v>
    <v>       0.99995000       0.32677000       0.81286000 </v>
    <v>       0.74995000       0.67323000       0.81286000 </v>
    <v>       0.49987000       0.07798000       0.06246000 </v>
    <v>       0.24987000       0.92202000       0.06246000 </v>
    <v>       0.25013000       0.07798000       0.31246000 </v>
    <v>       0.00013000       0.92202000       0.31246000 </v>
    <v>       0.99987000       0.07798000       0.06246000 </v>
    <v>       0.74987000       0.92202000       0.06246000 </v>
    <v>       0.75013000       0.07798000       0.31246000 </v>
    <v>       0.50013000       0.92202000       0.31246000 </v>
    <v>       0.49987000       0.07798000       0.56246000 </v>
    <v>       0.24987000       0.92202000       0.56246000 </v>
    <v>       0.25013000       0.07798000       0.81246000 </v>
    <v>       0.00013000       0.92202000       0.81246000 </v>
    <v>       0.99987000       0.07798000       0.56246000 </v>
    <v>       0.74987000       0.92202000       0.56246000 </v>
    <v>       0.75013000       0.07798000       0.81246000 </v>
    <v>       0.50013000       0.92202000       0.81246000 </v>
   </varray>
  </structure>
  <varray name="forces" >
   <v>      -0.20180150      -0.00154673       0.00342286 </v>
   <v>      -0.45328748       0.07205754       0.66077479 </v>
   <v>      -0.33871163       0.06152899       0.72663194 </v>
   <v>      -0.38394843      -0.00029961       0.00812802 </v>
   <v>      -0.45354930      -0.07048109      -0.65229335 </v>
   <v>      -0.33842857      -0.06433845      -0.71162392 </v>
   <v>       0.37872415      -0.00579457       0.02839166 </v>
   <v>       0.92692750      -0.11829717       0.35365683 </v>
   <v>       0.56444532      -0.00675814       0.03066900 </v>
   <v>      -0.59670486      -0.00355100       0.03049026 </v>
   <v>       0.92715098       0.12347962      -0.29528085 </v>
   <v>      -0.07959236       0.03870676       0.39422645 </v>
   <v>      -0.28580741      -1.09676465       0.34630128 </v>
   <v>      -0.29164311      -0.98301341       0.33742412 </v>
   <v>      -0.03059297      -0.04074676       0.37582868 </v>
   <v>       0.13329397       1.03447372       0.09165254 </v>
   <v>       0.20669056       0.06316057       0.15485110 </v>
   <v>       0.19902372      -0.09654135       0.13020630 </v>
   <v>       0.15437674       1.05043778       0.10715796 </v>
   <v>       0.13220764      -1.05663315      -0.12020362 </v>
   <v>      -0.30508547       0.97381349      -0.35011559 </v>
   <v>      -0.27828032       1.10959892      -0.34991974 </v>
   <v>       0.15066039      -1.02364778      -0.09700294 </v>
   <v>      -0.04537401       0.06086003      -0.38850714 </v>
   <v>       0.19612820       0.09643091      -0.14134393 </v>
   <v>       0.21015527      -0.06251595      -0.16293828 </v>
   <v>      -0.06419527      -0.05817348      -0.40164388 </v>
   <v>       0.20378537       0.09945183      -0.29890580 </v>
   <v>       0.08000344      -0.13876980      -0.22673089 </v>
   <v>       0.10846403       0.13994876      -0.23285947 </v>
   <v>       0.19362373      -0.19464422      -0.28735711 </v>
   <v>      -0.15781819       0.05793048      -0.06804389 </v>
   <v>      -0.12586034      -0.02197764      -0.13811432 </v>
   <v>      -0.11584145       0.19066915      -0.14414756 </v>
   <v>      -0.18788636      -0.13308413      -0.08911490 </v>
   <v>       0.19447715       0.19278297       0.28907756 </v>
   <v>      -0.11447367      -0.19133311       0.14534684 </v>
   <v>      -0.12851720       0.02025534       0.13712519 </v>
   <v>       0.20262128      -0.09752356       0.29535289 </v>
   <v>      -0.19393775       0.13181788       0.08882967 </v>
   <v>       0.10815934      -0.13783293       0.23534377 </v>
   <v>       0.08073143       0.13660382       0.22338743 </v>
   <v>      -0.15081429      -0.05827056       0.06537339 </v>
   <v>      -0.74333441      -0.76046289       0.43556337 </v>
   <v>       0.67864901       0.89787937      -0.74447529 </v>
   <v>       0.71835808       0.79429130      -0.81143573 </v>
   <v>      -0.50565546      -1.03978594       0.34941738 </v>
   <v>       0.22067974       0.00344279      -1.22698585 </v>
   <v>      -0.12060922      -0.22352976      -0.05803354 </v>
   <v>      -0.19031576       0.33356762      -0.13144805 </v>
   <v>      -0.07111111       0.00166997      -1.29493109 </v>
   <v>      -0.06523749      -0.00542334       1.28709661 </v>
   <v>       0.72996227      -0.78809060       0.81518069 </v>
   <v>       0.65549117      -0.89551423       0.72188819 </v>
   <v>       0.21561407       0.00102910       1.21625252 </v>
   <v>      -0.49663990       1.03860260      -0.35030244 </v>
   <v>      -0.16182819      -0.33198498       0.10959148 </v>
   <v>      -0.14844096       0.22418428       0.03436244 </v>
   <v>      -0.74508012       0.75865544      -0.45524403 </v>
  </varray>
  <varray name="stress" >
   <v>      -7.31337405      -0.29451592       0.01433145 </v>
   <v>      -0.29451581     -13.12560970      -0.30003221 </v>
   <v>       0.01433134      -0.30003228     -11.57893082 </v>
  </varray>
  <energy>
   <i name="e_fr_energy">   -301.98571886 </i>
   <i name="e_wo_entrp">   -301.98571886 </i>
   <i name="e_0_energy">      0.00000000 </i>
  </energy>
  <time name="totalsc"> 1458.65 1459.80</time>
  <eigenvalues>
   <array>
    <dimension dim="1">band</dimension>
    <dimension dim="2">kpoint</dimension>
    <dimension dim="3">spin</dimension>
    <field>eigene</field>
    <field>occ</field>
    <set>
     <set comment="spin 1">
      <set comment="kpoint 1">
       <r>  -40.3203    1.0000 </r>
       <r>  -40.1507    1.0000 </r>
       <r>  -40.1504    1.0000 </r>
       <r>  -39.5820    1.0000 </r>
       <r>  -39.5808    1.0000 </r>
       <r>  -39.4187    1.0000 </r>
       <r>  -19.0361    1.0000 </r>
       <r>  -19.0338    1.0000 </r>
       <r>  -18.9732    1.0000 </r>
       <r>  -18.9694    1.0000 </r>
       <r>  -18.9607    1.0000 </r>
       <r>  -18.9594    1.0000 </r>
       <r>  -18.9516    1.0000 </r>
       <r>  -18.9501    1.0000 </r>
       <r>  -18.8967    1.0000 </r>
       <r>  -18.8939    1.0000 </r>
       <r>  -18.8889    1.0000 </r>
       <r>  -18.8861    1.0000 </r>
       <r>  -18.8634    1.0000 </r>
       <r>  -18.8615    1.0000 </r>
       <r>  -18.8434    1.0000 </r>
       <r>  -18.8415    1.0000 </r>
       <r>  -18.7965    1.0000 </r>
       <r>  -18.7930    1.0000 </r>
       <r>  -18.7839    1.0000 </r>
       <r>  -18.7804    1.0000 </r>
       <r>  -18.7292    1.0000 </r>
       <r>  -18.7274    1.0000 </r>
       <r>  -18.7212    1.0000 </r>
       <r>  -18.7198    1.0000 </r>
       <r>  -18.7050    1.0000 </r>
       <r>  -18.7036    1.0000 </r>
       <r>  -18.6822    1.0000 </r>
       <r>  -18.6802    1.0000 </r>
       <r>  -18.6775    1.0000 </r>
       <r>  -18.6765    1.0000 </r>
       <r>  -18.6644    1.0000 </r>
       <r>  -18.6627    1.0000 </r>
       <r>  -18.6596    1.0000 </r>
       <r>  -18.6592    1.0000 </r>
       <r>  -18.6558    1.0000 </r>
       <r>  -18.6535    1.0000 </r>
       <r>  -18.6504    1.0000 </r>
       <r>  -18.6493    1.0000 </r>
       <r>  -18.5831    1.0000 </r>
       <r>  -18.5827    1.0000 </r>
       <r>  -18.5780    1.0000 </r>
       <r>  -18.5763    1.0000 </r>
       <r>  -18.5734    1.0000 </r>
       <r>  -18.5730    1.0000 </r>
       <r>  -18.5548    1.0000 </r>
       <r>  -18.5540    1.0000 </r>
       <r>  -18.5471    1.0000 </r>
       <r>  -18.5453    1.0000 </r>
       <r>  -18.5275    1.0000 </r>
       <r>  -18.5255    1.0000 </r>
       <r>  -18.5223    1.0000 </r>
       <r>  -18.5213    1.0000 </r>
       <r>  -18.5016    1.0000 </r>
       <r>  -18.4992    1.0000 </r>
       <r>  -18.4962    1.0000 </r>
       <r>  -18.4949    1.0000 </r>
       <r>  -18.4368    1.0000 </r>
       <r>  -18.4349    1.0000 </r>
       <r>  -18.4299    1.0000 </r>
       <r>  -18.4288    1.0000 </r>
       <r>  -18.4242    1.0000 </r>
       <r>  -18.4223    1.0000 </r>
       <r>  -18.3987    1.0000 </r>
       <r>  -18.3980    1.0000 </r>
       <r>  -18.3540    1.0000 </r>
       <r>  -18.3536    1.0000 </r>
       <r>  -18.3500    1.0000 </r>
       <r>  -18.3483    1.0000 </r>
       <r>  -18.3392    1.0000 </r>
       <r>  -18.3386    1.0000 </r>
       <r>  -18.2615    1.0000 </r>
       <r>  -18.2612    1.0000 </r>
       <r>  -18.2315    1.0000 </r>
       <r>  -18.2291    1.0000 </r>
       <r>  -18.2168    1.0000 </r>
       <r>  -18.2143    1.0000 </r>
       <r>  -18.1532    1.0000 </r>
       <r>  -18.1524    1.0000 </r>
       <r>  -18.1265    1.0000 </r>
       <r>  -18.1257    1.0000 </r>
       <r>  -13.7426    1.0000 </r>
       <r>  -13.6107    1.0000 </r>
       <r>  -13.5711    1.0000 </r>
       <r>  -13.5111    1.0000 </r>
       <r>  -12.9182    1.0000 </r>
       <r>  -12.8147    1.0000 </r>
       <r>  -12.7866    1.0000 </r>
       <r>  -12.7467    1.0000 </r>
       <r>  -12.7238    1.0000 </r>
       <r>  -12.7037    1.0000 </r>
       <r>  -12.6288    1.0000 </r>
       <r>  -12.5554    1.0000 </r>
       <r>  -12.0508    1.0000 </r>
       <r>  -11.9695    1.0000 </r>
       <r>  -11.9261    1.0000 </r>
       <r>  -11.8701    1.0000 </r>
       <r>   -9.3841    1.0000 </r>
       <r>   -9.0921    1.0000 </r>
       <r>   -8.5696    1.0000 </r>
       <r>   -8.5449    1.0000 </r>
       <r>   -8.5387    1.0000 </r>
       <r>   -8.4776    1.0000 </r>
       <r>   -8.3536    1.0000 </r>
       <r>   -8.3207    1.0000 </r>
       <r>   -8.3201    1.0000 </r>
       <r>   -8.2593    1.0000 </r>
       <r>   -8.0357    1.0000 </r>
       <r>   -8.0230    1.0000 </r>
       <r>   -7.9986    1.0000 </r>
       <r>   -7.9854    1.0000 </r>
       <r>   -7.3785    1.0000 </r>
       <r>   -7.3775    1.0000 </r>
       <r>   -6.4200    1.0000 </r>
       <r>   -6.4186    1.0000 </r>
       <r>   -6.3912    1.0000 </r>
       <r>   -6.3898    1.0000 </r>
       <r>   -5.6064    1.0000 </r>
       <r>   -5.5917    1.0000 </r>
       <r>   -5.4256    1.0000 </r>
       <r>   -5.3325    1.0000 </r>
       <r>   -5.3118    1.0000 </r>
       <r>   -5.2811    1.0000 </r>
       <r>   -5.2441    1.0000 </r>
       <r>   -5.1237    1.0000 </r>
       <r>   -5.0900    1.0000 </r>
       <r>   -5.0674    1.0000 </r>
       <r>   -3.8204    1.0000 </r>
       <r>   -3.6695    1.0000 </r>
       <r>   -1.5732    1.0000 </r>
       <r>   -1.3372    1.0000 </r>
       <r>   -1.1848    1.0000 </r>
       <r>   -1.0215    1.0000 </r>
       <r>   -0.6567    1.0000 </r>
       <r>   -0.5992    1.0000 </r>
       <r>   -0.5537    1.0000 </r>
       <r>   -0.4926    1.0000 </r>
       <r>   -0.2416    1.0000 </r>
       <r>   -0.2360    1.0000 </r>
       <r>   -0.2003    1.0000 </r>
       <r>   -0.1527    1.0000 </r>
       <r>   -0.1436    1.0000 </r>
       <r>   -0.0161    1.0000 </r>
       <r>    0.1081    1.0000 </r>
       <r>    0.1502    1.0000 </r>
       <r>    0.1873    1.0000 </r>
       <r>    0.3698    1.0000 </r>
       <r>    0.4647    1.0000 </r>
       <r>    0.5268    1.0000 </r>
       <r>    0.5624    1.0000 </r>
       <r>    0.6051    1.0000 </r>
       <r>    0.6924    1.0000 </r>
       <r>    0.7006    1.0000 </r>
       <r>    0.7534    1.0000 </r>
       <r>    0.7687    1.0000 </r>
       <r>    0.8561    1.0000 </r>
       <r>    0.8981    1.0000 </r>
       <r>    0.9019    1.0000 </r>
       <r>    0.9446    1.0000 </r>
       <r>    0.9877    1.0000 </r>
       <r>    1.0081    1.0000 </r>
       <r>    1.0225    1.0000 </r>
       <r>    1.0762    1.0000 </r>
       <r>    1.0912    1.0000 </r>
       <r>    1.1703    1.0000 </r>
       <r>    1.1726    1.0000 </r>
       <r>    1.2247    1.0000 </r>
       <r>    1.3345    1.0000 </r>
       <r>    1.3659    1.0000 </r>
       <r>    1.4041    1.0000 </r>
       <r>    1.5576    1.0000 </r>
       <r>    1.5804    1.0000 </r>
       <r>    1.5997    1.0000 </r>
       <r>    1.6784    1.0000 </r>
       <r>    1.7030    1.0000 </r>
       <r>    1.7362    1.0000 </r>
       <r>    1.7370    1.0000 </r>
       <r>    1.8401    1.0000 </r>
       <r>    1.8703    1.0000 </r>
       <r>    1.9383    1.0000 </r>
       <r>    1.9950    1.0000 </r>
       <r>    2.0616    1.0000 </r>
       <r>    2.2010    1.0000 </r>
       <r>    2.2350    1.0000 </r>
       <r>    2.3261    1.0000 </r>
       <r>    2.3338    1.0000 </r>
       <r>    2.3684    1.0000 </r>
       <r>    2.4056    1.0000 </r>
       <r>    2.4118    1.0000 </r>
       <r>    2.5254    1.0000 </r>
       <r>    2.5264    1.0000 </r>
       <r>    2.5555    1.0000 </r>
       <r>    2.5584    1.0000 </r>
       <r>    2.5951    1.0000 </r>
       <r>    2.6044    1.0000 </r>
       <r>    2.6465    1.0000 </r>
       <r>    2.7193    1.0000 </r>
       <r>    2.7449    1.0000 </r>
       <r>    2.7930    1.0000 </r>
       <r>    2.8035    1.0000 </r>
       <r>    2.9017    1.0000 </r>
       <r>    2.9262    1.0000 </r>
       <r>    2.9605    1.0000 </r>
       <r>    2.9764    1.0000 </r>
       <r>    2.9874    1.0000 </r>
       <r>    3.0548    1.0000 </r>
       <r>    3.0898    1.0000 </r>
       <r>    3.1149    1.0000 </r>
       <r>    3.1494    1.0000 </r>
       <r>    3.1680    1.0000 </r>
       <r>    3.1719    1.0000 </r>
       <r>    3.2193    1.0000 </r>
       <r>    3.2298    1.0000 </r>
       <r>    3.2490    1.0000 </r>
       <r>    3.2739    1.0000 </r>
       <r>    3.3407    1.0000 </r>
       <r>    3.3628    1.0000 </r>
       <r>    3.4411    1.0000 </r>
       <r>    3.4932    1.0000 </r>
       <r>    3.6498    1.0000 </r>
       <r>    3.8295    1.0000 </r>
       <r>    4.1641    1.0000 </r>
       <r>    4.1722    1.0000 </r>
       <r>    4.2260    1.0000 </r>
       <r>    4.2281    1.0000 </r>
       <r>    4.9708    0.0000 </r>
       <r>    4.9728    0.0000 </r>
       <r>    5.1583    0.0000 </r>
       <r>    5.1686    0.0000 </r>
       <r>    5.6734    0.0000 </r>
       <r>    5.6821    0.0000 </r>
       <r>    5.7790    0.0000 </r>
       <r>    5.7914    0.0000 </r>
       <r>    6.0895    0.0000 </r>
       <r>    6.1138    0.0000 </r>
       <r>    6.1337    0.0000 </r>
       <r>    6.1684    0.0000 </r>
       <r>    6.2116    0.0000 </r>
       <r>    6.2410    0.0000 </r>
       <r>    6.2486    0.0000 </r>
       <r>    6.2736    0.0000 </r>
       <r>    6.9409    0.0000 </r>
       <r>    6.9847    0.0000 </r>
       <r>    7.2369    0.0000 </r>
       <r>    7.2422    0.0000 </r>
       <r>    7.7132    0.0000 </r>
       <r>    7.7785    0.0000 </r>
       <r>    7.8526    0.0000 </r>
       <r>    7.8976    0.0000 </r>
       <r>    7.9565    0.0000 </r>
       <r>    7.9803    0.0000 </r>
       <r>    8.0562    0.0000 </r>
       <r>    8.0939    0.0000 </r>
       <r>    8.3431    0.0000 </r>
       <r>    8.6252    0.0000 </r>
       <r>    8.6825    0.0000 </r>
       <r>    8.7302    0.0000 </r>
       <r>    8.8038    0.0000 </r>
       <r>    8.8083    0.0000 </r>
       <r>    8.8196    0.0000 </r>
       <r>    8.9564    0.0000 </r>
       <r>    8.9783    0.0000 </r>
       <r>    8.9971    0.0000 </r>
       <r>    9.0228    0.0000 </r>
       <r>    9.0711    0.0000 </r>
       <r>    9.0880    0.0000 </r>
       <r>    9.1422    0.0000 </r>
       <r>    9.1718    0.0000 </r>
       <r>    9.2828    0.0000 </r>
       <r>    9.3404    0.0000 </r>
       <r>    9.4356    0.0000 </r>
       <r>    9.5015    0.0000 </r>
       <r>    9.5183    0.0000 </r>
       <r>    9.7117    0.0000 </r>
       <r>    9.7735    0.0000 </r>
      </set>
      <set comment="kpoint 2">
       <r>  -40.3203    1.0000 </r>
       <r>  -40.1507    1.0000 </r>
       <r>  -40.1504    1.0000 </r>
       <r>  -39.5820    1.0000 </r>
       <r>  -39.5808    1.0000 </r>
       <r>  -39.4187    1.0000 </r>
       <r>  -19.0361    1.0000 </r>
       <r>  -19.0338    1.0000 </r>
       <r>  -18.9732    1.0000 </r>
       <r>  -18.9694    1.0000 </r>
       <r>  -18.9606    1.0000 </r>
       <r>  -18.9593    1.0000 </r>
       <r>  -18.9516    1.0000 </r>
       <r>  -18.9501    1.0000 </r>
       <r>  -18.8967    1.0000 </r>
       <r>  -18.8939    1.0000 </r>
       <r>  -18.8889    1.0000 </r>
       <r>  -18.8861    1.0000 </r>
       <r>  -18.8634    1.0000 </r>
       <r>  -18.8615    1.0000 </r>
       <r>  -18.8434    1.0000 </r>
       <r>  -18.8415    1.0000 </r>
       <r>  -18.7965    1.0000 </r>
       <r>  -18.7930    1.0000 </r>
       <r>  -18.7839    1.0000 </r>
       <r>  -18.7804    1.0000 </r>
       <r>  -18.7293    1.0000 </r>
       <r>  -18.7275    1.0000 </r>
       <r>  -18.7212    1.0000 </r>
       <r>  -18.7198    1.0000 </r>
       <r>  -18.7050    1.0000 </r>
       <r>  -18.7036    1.0000 </r>
       <r>  -18.6822    1.0000 </r>
       <r>  -18.6802    1.0000 </r>
       <r>  -18.6776    1.0000 </r>
       <r>  -18.6766    1.0000 </r>
       <r>  -18.6645    1.0000 </r>
       <r>  -18.6629    1.0000 </r>
       <r>  -18.6597    1.0000 </r>
       <r>  -18.6594    1.0000 </r>
       <r>  -18.6554    1.0000 </r>
       <r>  -18.6533    1.0000 </r>
       <r>  -18.6502    1.0000 </r>
       <r>  -18.6492    1.0000 </r>
       <r>  -18.5831    1.0000 </r>
       <r>  -18.5827    1.0000 </r>
       <r>  -18.5780    1.0000 </r>
       <r>  -18.5763    1.0000 </r>
       <r>  -18.5734    1.0000 </r>
       <r>  -18.5730    1.0000 </r>
       <r>  -18.5548    1.0000 </r>
       <r>  -18.5540    1.0000 </r>
       <r>  -18.5471    1.0000 </r>
       <r>  -18.5453    1.0000 </r>
       <r>  -18.5275    1.0000 </r>
       <r>  -18.5255    1.0000 </r>
       <r>  -18.5223    1.0000 </r>
       <r>  -18.5213    1.0000 </r>
       <r>  -18.5016    1.0000 </r>
       <r>  -18.4992    1.0000 </r>
       <r>  -18.4962    1.0000 </r>
       <r>  -18.4949    1.0000 </r>
       <r>  -18.4368    1.0000 </r>
       <r>  -18.4349    1.0000 </r>
       <r>  -18.4299    1.0000 </r>
       <r>  -18.4288    1.0000 </r>
       <r>  -18.4242    1.0000 </r>
       <r>  -18.4223    1.0000 </r>
       <r>  -18.3987    1.0000 </r>
       <r>  -18.3980    1.0000 </r>
       <r>  -18.3540    1.0000 </r>
       <r>  -18.3536    1.0000 </r>
       <r>  -18.3499    1.0000 </r>
       <r>  -18.3483    1.0000 </r>
       <r>  -18.3392    1.0000 </r>
       <r>  -18.3386    1.0000 </r>
       <r>  -18.2615    1.0000 </r>
       <r>  -18.2612    1.0000 </r>
       <r>  -18.2315    1.0000 </r>
       <r>  -18.2291    1.0000 </r>
       <r>  -18.2168    1.0000 </r>
       <r>  -18.2143    1.0000 </r>
       <r>  -18.1532    1.0000 </r>
       <r>  -18.1524    1.0000 </r>
       <r>  -18.1265    1.0000 </r>
       <r>  -18.1257    1.0000 </r>
       <r>  -13.7418    1.0000 </r>
       <r>  -13.6106    1.0000 </r>
       <r>  -13.5722    1.0000 </r>
       <r>  -13.5111    1.0000 </r>
       <r>  -12.9175    1.0000 </r>
       <r>  -12.8147    1.0000 </r>
       <r>  -12.7870    1.0000 </r>
       <r>  -12.7463    1.0000 </r>
       <r>  -12.7231    1.0000 </r>
       <r>  -12.7039    1.0000 </r>
       <r>  -12.6298    1.0000 </r>
       <r>  -12.5554    1.0000 </r>
       <r>  -12.0509    1.0000 </r>
       <r>  -11.9697    1.0000 </r>
       <r>  -11.9258    1.0000 </r>
       <r>  -11.8700    1.0000 </r>
       <r>   -9.2391    1.0000 </r>
       <r>   -9.0814    1.0000 </r>
       <r>   -8.9673    1.0000 </r>
       <r>   -8.8061    1.0000 </r>
       <r>   -8.4427    1.0000 </r>
       <r>   -8.3998    1.0000 </r>
       <r>   -8.2988    1.0000 </r>
       <r>   -8.2696    1.0000 </r>
       <r>   -8.2485    1.0000 </r>
       <r>   -8.1968    1.0000 </r>
       <r>   -8.1042    1.0000 </r>
       <r>   -8.0644    1.0000 </r>
       <r>   -7.7692    1.0000 </r>
       <r>   -7.6620    1.0000 </r>
       <r>   -7.6516    1.0000 </r>
       <r>   -7.5445    1.0000 </r>
       <r>   -6.0917    1.0000 </r>
       <r>   -6.0692    1.0000 </r>
       <r>   -5.9996    1.0000 </r>
       <r>   -5.9519    1.0000 </r>
       <r>   -5.8540    1.0000 </r>
       <r>   -5.8232    1.0000 </r>
       <r>   -5.7604    1.0000 </r>
       <r>   -5.7012    1.0000 </r>
       <r>   -5.6497    1.0000 </r>
       <r>   -5.6076    1.0000 </r>
       <r>   -5.4512    1.0000 </r>
       <r>   -5.4249    1.0000 </r>
       <r>   -4.5165    1.0000 </r>
       <r>   -4.3575    1.0000 </r>
       <r>   -4.3569    1.0000 </r>
       <r>   -4.1871    1.0000 </r>
       <r>   -1.3353    1.0000 </r>
       <r>   -1.1030    1.0000 </r>
       <r>   -0.9442    1.0000 </r>
       <r>   -0.7630    1.0000 </r>
       <r>   -0.6562    1.0000 </r>
       <r>   -0.3956    1.0000 </r>
       <r>   -0.2426    1.0000 </r>
       <r>   -0.1015    1.0000 </r>
       <r>   -0.0925    1.0000 </r>
       <r>   -0.0356    1.0000 </r>
       <r>    0.0082    1.0000 </r>
       <r>    0.0581    1.0000 </r>
       <r>    0.0608    1.0000 </r>
       <r>    0.1848    1.0000 </r>
       <r>    0.2369    1.0000 </r>
       <r>    0.3219    1.0000 </r>
       <r>    0.3507    1.0000 </r>
       <r>    0.4467    1.0000 </r>
       <r>    0.5191    1.0000 </r>
       <r>    0.5417    1.0000 </r>
       <r>    0.5470    1.0000 </r>
       <r>    0.5988    1.0000 </r>
       <r>    0.6317    1.0000 </r>
       <r>    0.6494    1.0000 </r>
       <r>    0.6746    1.0000 </r>
       <r>    0.7019    1.0000 </r>
       <r>    0.7690    1.0000 </r>
       <r>    0.8352    1.0000 </r>
       <r>    0.8660    1.0000 </r>
       <r>    0.8992    1.0000 </r>
       <r>    0.9585    1.0000 </r>
       <r>    0.9890    1.0000 </r>
       <r>    1.0356    1.0000 </r>
       <r>    1.0524    1.0000 </r>
       <r>    1.1520    1.0000 </r>
       <r>    1.1747    1.0000 </r>
       <r>    1.2378    1.0000 </r>
       <r>    1.2939    1.0000 </r>
       <r>    1.3040    1.0000 </r>
       <r>    1.3486    1.0000 </r>
       <r>    1.3876    1.0000 </r>
       <r>    1.4211    1.0000 </r>
       <r>    1.4225    1.0000 </r>
       <r>    1.4674    1.0000 </r>
       <r>    1.5804    1.0000 </r>
       <r>    1.6077    1.0000 </r>
       <r>    1.6386    1.0000 </r>
       <r>    1.7408    1.0000 </r>
       <r>    1.7825    1.0000 </r>
       <r>    1.7849    1.0000 </r>
       <r>    1.8153    1.0000 </r>
       <r>    1.9024    1.0000 </r>
       <r>    1.9736    1.0000 </r>
       <r>    2.0315    1.0000 </r>
       <r>    2.0664    1.0000 </r>
       <r>    2.0837    1.0000 </r>
       <r>    2.1001    1.0000 </r>
       <r>    2.1827    1.0000 </r>
       <r>    2.2124    1.0000 </r>
       <r>    2.2247    1.0000 </r>
       <r>    2.3310    1.0000 </r>
       <r>    2.3711    1.0000 </r>
       <r>    2.4107    1.0000 </r>
       <r>    2.4293    1.0000 </r>
       <r>    2.5028    1.0000 </r>
       <r>    2.5167    1.0000 </r>
       <r>    2.5736    1.0000 </r>
       <r>    2.5857    1.0000 </r>
       <r>    2.6521    1.0000 </r>
       <r>    2.6638    1.0000 </r>
       <r>    2.6856    1.0000 </r>
       <r>    2.7338    1.0000 </r>
       <r>    2.7843    1.0000 </r>
       <r>    2.8206    1.0000 </r>
       <r>    2.8240    1.0000 </r>
       <r>    2.8675    1.0000 </r>
       <r>    2.9429    1.0000 </r>
       <r>    2.9521    1.0000 </r>
       <r>    3.0138    1.0000 </r>
       <r>    3.0309    1.0000 </r>
       <r>    3.1037    1.0000 </r>
       <r>    3.1188    1.0000 </r>
       <r>    3.1280    1.0000 </r>
       <r>    3.1942    1.0000 </r>
       <r>    3.2918    1.0000 </r>
       <r>    3.3094    1.0000 </r>
       <r>    3.3136    1.0000 </r>
       <r>    3.4171    1.0000 </r>
       <r>    3.4273    1.0000 </r>
       <r>    3.5325    1.0000 </r>
       <r>    3.5548    1.0000 </r>
       <r>    3.5605    1.0000 </r>
       <r>    3.6469    1.0000 </r>
       <r>    3.7046    1.0000 </r>
       <r>    3.8381    1.0000 </r>
       <r>    3.9405    1.0000 </r>
       <r>    5.5169    0.0000 </r>
       <r>    5.5329    0.0000 </r>
       <r>    5.6913    0.0000 </r>
       <r>    5.6959    0.0000 </r>
       <r>    5.7150    0.0000 </r>
       <r>    5.7318    0.0000 </r>
       <r>    5.8680    0.0000 </r>
       <r>    5.8859    0.0000 </r>
       <r>    7.0702    0.0000 </r>
       <r>    7.0810    0.0000 </r>
       <r>    7.1523    0.0000 </r>
       <r>    7.2428    0.0000 </r>
       <r>    7.2882    0.0000 </r>
       <r>    7.2986    0.0000 </r>
       <r>    7.3469    0.0000 </r>
       <r>    7.4193    0.0000 </r>
       <r>    7.4516    0.0000 </r>
       <r>    7.4691    0.0000 </r>
       <r>    7.5076    0.0000 </r>
       <r>    7.6038    0.0000 </r>
       <r>    7.7532    0.0000 </r>
       <r>    7.8088    0.0000 </r>
       <r>    7.8155    0.0000 </r>
       <r>    7.8294    0.0000 </r>
       <r>    7.8658    0.0000 </r>
       <r>    7.8811    0.0000 </r>
       <r>    7.9169    0.0000 </r>
       <r>    7.9539    0.0000 </r>
       <r>    7.9802    0.0000 </r>
       <r>    7.9899    0.0000 </r>
       <r>    8.0376    0.0000 </r>
       <r>    8.0832    0.0000 </r>
       <r>    8.2268    0.0000 </r>
       <r>    8.2651    0.0000 </r>
       <r>    8.4472    0.0000 </r>
       <r>    8.5247    0.0000 </r>
       <r>    8.6421    0.0000 </r>
       <r>    8.7112    0.0000 </r>
       <r>    8.7220    0.0000 </r>
       <r>    8.7448    0.0000 </r>
       <r>    8.7489    0.0000 </r>
       <r>    8.8475    0.0000 </r>
       <r>    8.9159    0.0000 </r>
       <r>    8.9315    0.0000 </r>
       <r>    9.0747    0.0000 </r>
       <r>    9.1653    0.0000 </r>
       <r>    9.2866    0.0000 </r>
       <r>    9.3350    0.0000 </r>
       <r>    9.5499    0.0000 </r>
       <r>    9.5502    0.0000 </r>
      </set>
      <set comment="kpoint 3">
       <r>  -40.3203    1.0000 </r>
       <r>  -40.1507    1.0000 </r>
       <r>  -40.1504    1.0000 </r>
       <r>  -39.5820    1.0000 </r>
       <r>  -39.5808    1.0000 </r>
       <r>  -39.4187    1.0000 </r>
       <r>  -19.0363    1.0000 </r>
       <r>  -19.0336    1.0000 </r>
       <r>  -18.9732    1.0000 </r>
       <r>  -18.9693    1.0000 </r>
       <r>  -18.9607    1.0000 </r>
       <r>  -18.9594    1.0000 </r>
       <r>  -18.9516    1.0000 </r>
       <r>  -18.9501    1.0000 </r>
       <r>  -18.8967    1.0000 </r>
       <r>  -18.8939    1.0000 </r>
       <r>  -18.8889    1.0000 </r>
       <r>  -18.8861    1.0000 </r>
       <r>  -18.8634    1.0000 </r>
       <r>  -18.8615    1.0000 </r>
       <r>  -18.8434    1.0000 </r>
       <r>  -18.8415    1.0000 </r>
       <r>  -18.7965    1.0000 </r>
       <r>  -18.7930    1.0000 </r>
       <r>  -18.7839    1.0000 </r>
       <r>  -18.7804    1.0000 </r>
       <r>  -18.7292    1.0000 </r>
       <r>  -18.7275    1.0000 </r>
       <r>  -18.7212    1.0000 </r>
       <r>  -18.7198    1.0000 </r>
       <r>  -18.7052    1.0000 </r>
       <r>  -18.7034    1.0000 </r>
       <r>  -18.6822    1.0000 </r>
       <r>  -18.6801    1.0000 </r>
       <r>  -18.6775    1.0000 </r>
       <r>  -18.6765    1.0000 </r>
       <r>  -18.6644    1.0000 </r>
       <r>  -18.6627    1.0000 </r>
       <r>  -18.6596    1.0000 </r>
       <r>  -18.6592    1.0000 </r>
       <r>  -18.6558    1.0000 </r>
       <r>  -18.6536    1.0000 </r>
       <r>  -18.6505    1.0000 </r>
       <r>  -18.6492    1.0000 </r>
       <r>  -18.5831    1.0000 </r>
       <r>  -18.5827    1.0000 </r>
       <r>  -18.5780    1.0000 </r>
       <r>  -18.5763    1.0000 </r>
       <r>  -18.5734    1.0000 </r>
       <r>  -18.5731    1.0000 </r>
       <r>  -18.5548    1.0000 </r>
       <r>  -18.5541    1.0000 </r>
       <r>  -18.5470    1.0000 </r>
       <r>  -18.5453    1.0000 </r>
       <r>  -18.5275    1.0000 </r>
       <r>  -18.5255    1.0000 </r>
       <r>  -18.5223    1.0000 </r>
       <r>  -18.5213    1.0000 </r>
       <r>  -18.5016    1.0000 </r>
       <r>  -18.4992    1.0000 </r>
       <r>  -18.4962    1.0000 </r>
       <r>  -18.4950    1.0000 </r>
       <r>  -18.4368    1.0000 </r>
       <r>  -18.4349    1.0000 </r>
       <r>  -18.4298    1.0000 </r>
       <r>  -18.4289    1.0000 </r>
       <r>  -18.4242    1.0000 </r>
       <r>  -18.4223    1.0000 </r>
       <r>  -18.3987    1.0000 </r>
       <r>  -18.3980    1.0000 </r>
       <r>  -18.3540    1.0000 </r>
       <r>  -18.3536    1.0000 </r>
       <r>  -18.3500    1.0000 </r>
       <r>  -18.3483    1.0000 </r>
       <r>  -18.3392    1.0000 </r>
       <r>  -18.3386    1.0000 </r>
       <r>  -18.2618    1.0000 </r>
       <r>  -18.2608    1.0000 </r>
       <r>  -18.2315    1.0000 </r>
       <r>  -18.2291    1.0000 </r>
       <r>  -18.2168    1.0000 </r>
       <r>  -18.2143    1.0000 </r>
       <r>  -18.1532    1.0000 </r>
       <r>  -18.1524    1.0000 </r>
       <r>  -18.1264    1.0000 </r>
       <r>  -18.1257    1.0000 </r>
       <r>  -13.7423    1.0000 </r>
       <r>  -13.6108    1.0000 </r>
       <r>  -13.5711    1.0000 </r>
       <r>  -13.5114    1.0000 </r>
       <r>  -12.9169    1.0000 </r>
       <r>  -12.8142    1.0000 </r>
       <r>  -12.7869    1.0000 </r>
       <r>  -12.7466    1.0000 </r>
       <r>  -12.7243    1.0000 </r>
       <r>  -12.7045    1.0000 </r>
       <r>  -12.6287    1.0000 </r>
       <r>  -12.5564    1.0000 </r>
       <r>  -12.0489    1.0000 </r>
       <r>  -11.9708    1.0000 </r>
       <r>  -11.9261    1.0000 </r>
       <r>  -11.8718    1.0000 </r>
       <r>   -9.3745    1.0000 </r>
       <r>   -9.0984    1.0000 </r>
       <r>   -8.5875    1.0000 </r>
       <r>   -8.5625    1.0000 </r>
       <r>   -8.5556    1.0000 </r>
       <r>   -8.4943    1.0000 </r>
       <r>   -8.3344    1.0000 </r>
       <r>   -8.3025    1.0000 </r>
       <r>   -8.3009    1.0000 </r>
       <r>   -8.2414    1.0000 </r>
       <r>   -8.0389    1.0000 </r>
       <r>   -8.0264    1.0000 </r>
       <r>   -8.0014    1.0000 </r>
       <r>   -7.9874    1.0000 </r>
       <r>   -7.3812    1.0000 </r>
       <r>   -7.3803    1.0000 </r>
       <r>   -6.4120    1.0000 </r>
       <r>   -6.4070    1.0000 </r>
       <r>   -6.3817    1.0000 </r>
       <r>   -6.3803    1.0000 </r>
       <r>   -5.6121    1.0000 </r>
       <r>   -5.5894    1.0000 </r>
       <r>   -5.4763    1.0000 </r>
       <r>   -5.3617    1.0000 </r>
       <r>   -5.3238    1.0000 </r>
       <r>   -5.3115    1.0000 </r>
       <r>   -5.1913    1.0000 </r>
       <r>   -5.0740    1.0000 </r>
       <r>   -5.0486    1.0000 </r>
       <r>   -5.0287    1.0000 </r>
       <r>   -3.8949    1.0000 </r>
       <r>   -3.5832    1.0000 </r>
       <r>   -1.4341    1.0000 </r>
       <r>   -1.3751    1.0000 </r>
       <r>   -1.2910    1.0000 </r>
       <r>   -1.0831    1.0000 </r>
       <r>   -0.5544    1.0000 </r>
       <r>   -0.5030    1.0000 </r>
       <r>   -0.4628    1.0000 </r>
       <r>   -0.4467    1.0000 </r>
       <r>   -0.4137    1.0000 </r>
       <r>   -0.4015    1.0000 </r>
       <r>   -0.3625    1.0000 </r>
       <r>   -0.3091    1.0000 </r>
       <r>   -0.2786    1.0000 </r>
       <r>   -0.1171    1.0000 </r>
       <r>   -0.0909    1.0000 </r>
       <r>   -0.0401    1.0000 </r>
       <r>    0.0792    1.0000 </r>
       <r>    0.2902    1.0000 </r>
       <r>    0.3167    1.0000 </r>
       <r>    0.4375    1.0000 </r>
       <r>    0.4709    1.0000 </r>
       <r>    0.5643    1.0000 </r>
       <r>    0.5784    1.0000 </r>
       <r>    0.6594    1.0000 </r>
       <r>    0.7428    1.0000 </r>
       <r>    0.7709    1.0000 </r>
       <r>    0.7758    1.0000 </r>
       <r>    0.8228    1.0000 </r>
       <r>    0.8697    1.0000 </r>
       <r>    0.9091    1.0000 </r>
       <r>    0.9774    1.0000 </r>
       <r>    1.0621    1.0000 </r>
       <r>    1.1074    1.0000 </r>
       <r>    1.1549    1.0000 </r>
       <r>    1.2097    1.0000 </r>
       <r>    1.2793    1.0000 </r>
       <r>    1.3131    1.0000 </r>
       <r>    1.3518    1.0000 </r>
       <r>    1.4075    1.0000 </r>
       <r>    1.4249    1.0000 </r>
       <r>    1.5104    1.0000 </r>
       <r>    1.5645    1.0000 </r>
       <r>    1.6228    1.0000 </r>
       <r>    1.6823    1.0000 </r>
       <r>    1.7828    1.0000 </r>
       <r>    1.8423    1.0000 </r>
       <r>    1.8553    1.0000 </r>
       <r>    1.9405    1.0000 </r>
       <r>    1.9473    1.0000 </r>
       <r>    2.0226    1.0000 </r>
       <r>    2.0383    1.0000 </r>
       <r>    2.1533    1.0000 </r>
       <r>    2.2335    1.0000 </r>
       <r>    2.2441    1.0000 </r>
       <r>    2.3447    1.0000 </r>
       <r>    2.3822    1.0000 </r>
       <r>    2.3891    1.0000 </r>
       <r>    2.4345    1.0000 </r>
       <r>    2.4526    1.0000 </r>
       <r>    2.4810    1.0000 </r>
       <r>    2.4865    1.0000 </r>
       <r>    2.5275    1.0000 </r>
       <r>    2.5292    1.0000 </r>
       <r>    2.5407    1.0000 </r>
       <r>    2.5614    1.0000 </r>
       <r>    2.5761    1.0000 </r>
       <r>    2.6485    1.0000 </r>
       <r>    2.7092    1.0000 </r>
       <r>    2.7585    1.0000 </r>
       <r>    2.8277    1.0000 </r>
       <r>    2.8595    1.0000 </r>
       <r>    2.8687    1.0000 </r>
       <r>    2.9042    1.0000 </r>
       <r>    2.9130    1.0000 </r>
       <r>    2.9158    1.0000 </r>
       <r>    2.9472    1.0000 </r>
       <r>    2.9683    1.0000 </r>
       <r>    3.0446    1.0000 </r>
       <r>    3.0615    1.0000 </r>
       <r>    3.0956    1.0000 </r>
       <r>    3.2017    1.0000 </r>
       <r>    3.2314    1.0000 </r>
       <r>    3.2865    1.0000 </r>
       <r>    3.3588    1.0000 </r>
       <r>    3.3600    1.0000 </r>
       <r>    3.3984    1.0000 </r>
       <r>    3.4143    1.0000 </r>
       <r>    3.4412    1.0000 </r>
       <r>    3.4537    1.0000 </r>
       <r>    3.5596    1.0000 </r>
       <r>    3.6241    1.0000 </r>
       <r>    3.7771    1.0000 </r>
       <r>    4.2139    1.0000 </r>
       <r>    4.2258    1.0000 </r>
       <r>    4.2721    1.0000 </r>
       <r>    4.2842    1.0000 </r>
       <r>    5.0500    0.0000 </r>
       <r>    5.0530    0.0000 </r>
       <r>    5.2226    0.0000 </r>
       <r>    5.2270    0.0000 </r>
       <r>    5.6859    0.0000 </r>
       <r>    5.6872    0.0000 </r>
       <r>    5.7904    0.0000 </r>
       <r>    5.7994    0.0000 </r>
       <r>    6.1411    0.0000 </r>
       <r>    6.1614    0.0000 </r>
       <r>    6.1854    0.0000 </r>
       <r>    6.2040    0.0000 </r>
       <r>    6.2273    0.0000 </r>
       <r>    6.2566    0.0000 </r>
       <r>    6.2625    0.0000 </r>
       <r>    6.2953    0.0000 </r>
       <r>    6.5544    0.0000 </r>
       <r>    6.7158    0.0000 </r>
       <r>    6.9132    0.0000 </r>
       <r>    6.9637    0.0000 </r>
       <r>    7.0854    0.0000 </r>
       <r>    7.2906    0.0000 </r>
       <r>    7.4082    0.0000 </r>
       <r>    7.4228    0.0000 </r>
       <r>    7.8074    0.0000 </r>
       <r>    7.8481    0.0000 </r>
       <r>    7.8797    0.0000 </r>
       <r>    7.8864    0.0000 </r>
       <r>    8.0128    0.0000 </r>
       <r>    8.3697    0.0000 </r>
       <r>    8.3888    0.0000 </r>
       <r>    8.4047    0.0000 </r>
       <r>    8.5688    0.0000 </r>
       <r>    8.7476    0.0000 </r>
       <r>    8.8362    0.0000 </r>
       <r>    8.9236    0.0000 </r>
       <r>    8.9802    0.0000 </r>
       <r>    9.0039    0.0000 </r>
       <r>    9.0162    0.0000 </r>
       <r>    9.0304    0.0000 </r>
       <r>    9.0474    0.0000 </r>
       <r>    9.1270    0.0000 </r>
       <r>    9.1453    0.0000 </r>
       <r>    9.2373    0.0000 </r>
       <r>    9.4552    0.0000 </r>
       <r>    9.4848    0.0000 </r>
       <r>    9.5929    0.0000 </r>
       <r>    9.6720    0.0000 </r>
       <r>    9.7062    0.0000 </r>
       <r>    9.7276    0.0000 </r>
      </set>
      <set comment="kpoint 4">
       <r>  -40.3203    1.0000 </r>
       <r>  -40.1507    1.0000 </r>
       <r>  -40.1504    1.0000 </r>
       <r>  -39.5820    1.0000 </r>
       <r>  -39.5808    1.0000 </r>
       <r>  -39.4187    1.0000 </r>
       <r>  -19.0363    1.0000 </r>
       <r>  -19.0336    1.0000 </r>
       <r>  -18.9732    1.0000 </r>
       <r>  -18.9693    1.0000 </r>
       <r>  -18.9606    1.0000 </r>
       <r>  -18.9593    1.0000 </r>
       <r>  -18.9516    1.0000 </r>
       <r>  -18.9501    1.0000 </r>
       <r>  -18.8967    1.0000 </r>
       <r>  -18.8939    1.0000 </r>
       <r>  -18.8889    1.0000 </r>
       <r>  -18.8861    1.0000 </r>
       <r>  -18.8634    1.0000 </r>
       <r>  -18.8615    1.0000 </r>
       <r>  -18.8434    1.0000 </r>
       <r>  -18.8415    1.0000 </r>
       <r>  -18.7965    1.0000 </r>
       <r>  -18.7930    1.0000 </r>
       <r>  -18.7839    1.0000 </r>
       <r>  -18.7804    1.0000 </r>
       <r>  -18.7292    1.0000 </r>
       <r>  -18.7276    1.0000 </r>
       <r>  -18.7212    1.0000 </r>
       <r>  -18.7198    1.0000 </r>
       <r>  -18.7052    1.0000 </r>
       <r>  -18.7034    1.0000 </r>
       <r>  -18.6822    1.0000 </r>
       <r>  -18.6801    1.0000 </r>
       <r>  -18.6776    1.0000 </r>
       <r>  -18.6766    1.0000 </r>
       <r>  -18.6645    1.0000 </r>
       <r>  -18.6629    1.0000 </r>
       <r>  -18.6597    1.0000 </r>
       <r>  -18.6594    1.0000 </r>
       <r>  -18.6554    1.0000 </r>
       <r>  -18.6534    1.0000 </r>
       <r>  -18.6503    1.0000 </r>
       <r>  -18.6491    1.0000 </r>
       <r>  -18.5831    1.0000 </r>
       <r>  -18.5827    1.0000 </r>
       <r>  -18.5780    1.0000 </r>
       <r>  -18.5763    1.0000 </r>
       <r>  -18.5734    1.0000 </r>
       <r>  -18.5731    1.0000 </r>
       <r>  -18.5547    1.0000 </r>
       <r>  -18.5541    1.0000 </r>
       <r>  -18.5470    1.0000 </r>
       <r>  -18.5453    1.0000 </r>
       <r>  -18.5275    1.0000 </r>
       <r>  -18.5255    1.0000 </r>
       <r>  -18.5223    1.0000 </r>
       <r>  -18.5213    1.0000 </r>
       <r>  -18.5016    1.0000 </r>
       <r>  -18.4992    1.0000 </r>
       <r>  -18.4962    1.0000 </r>
       <r>  -18.4950    1.0000 </r>
       <r>  -18.4368    1.0000 </r>
       <r>  -18.4349    1.0000 </r>
       <r>  -18.4298    1.0000 </r>
       <r>  -18.4289    1.0000 </r>
       <r>  -18.4242    1.0000 </r>
       <r>  -18.4223    1.0000 </r>
       <r>  -18.3987    1.0000 </r>
       <r>  -18.3980    1.0000 </r>
       <r>  -18.3540    1.0000 </r>
       <r>  -18.3536    1.0000 </r>
       <r>  -18.3500    1.0000 </r>
       <r>  -18.3483    1.0000 </r>
       <r>  -18.3392    1.0000 </r>
       <r>  -18.3386    1.0000 </r>
       <r>  -18.2618    1.0000 </r>
       <r>  -18.2608    1.0000 </r>
       <r>  -18.2315    1.0000 </r>
       <r>  -18.2291    1.0000 </r>
       <r>  -18.2168    1.0000 </r>
       <r>  -18.2143    1.0000 </r>
       <r>  -18.1532    1.0000 </r>
       <r>  -18.1524    1.0000 </r>
       <r>  -18.1264    1.0000 </r>
       <r>  -18.1257    1.0000 </r>
       <r>  -13.7415    1.0000 </r>
       <r>  -13.6106    1.0000 </r>
       <r>  -13.5721    1.0000 </r>
[...]
       <r>    8.7957    0.0000 </r>
       <r>    8.8400    0.0000 </r>
       <r>    8.8823    0.0000 </r>
       <r>    8.8971    0.0000 </r>
       <r>    8.9322    0.0000 </r>
       <r>    8.9379    0.0000 </r>
       <r>    8.9549    0.0000 </r>
       <r>    9.4065    0.0000 </r>
       <r>    9.8623    0.0000 </r>
      </set>
     </set>
    </set>
   </array>
  </eigenvalues>
  <separator name="orbital magnetization" >
   <v name="MAGDIPOLOUT">      0.00000000      0.00000000      0.00000000</v>
  </separator>
  <dos>
   <i name="efermi">      4.32993598 </i>
   <total>
    <array>
     <dimension dim="1">gridpoints</dimension>
     <dimension dim="2">spin</dimension>
     <field>energy</field>
     <field>total</field>
     <field>integrated</field>
     <set>
      <set comment="spin 1">
       <r>   -42.8403     0.0000     0.0000 </r>
       <r>   -42.6555     0.0000     0.0000 </r>
       <r>   -42.4707     0.0000     0.0000 </r>
       <r>   -42.2859     0.0000     0.0000 </r>
       <r>   -42.1011     0.0000     0.0000 </r>
       <r>   -41.9163     0.0000     0.0000 </r>
       <r>   -41.7315     0.0000     0.0000 </r>
       <r>   -41.5467     0.0000     0.0000 </r>
       <r>   -41.3619     0.0000     0.0000 </r>
       <r>   -41.1771     0.0000     0.0000 </r>
       <r>   -40.9923     0.0000     0.0000 </r>
       <r>   -40.8075     0.0000     0.0000 </r>
       <r>   -40.6227     0.0000     0.0000 </r>
       <r>   -40.4379     0.0000     0.0000 </r>
       <r>   -40.2531     0.0000     2.0000 </r>
       <r>   -40.0683     0.0000     6.0000 </r>
       <r>   -39.8835     0.0000     6.0000 </r>
       <r>   -39.6987     0.0000     6.0000 </r>
       <r>   -39.5139     0.0000    10.0000 </r>
       <r>   -39.3291     0.0000    12.0000 </r>
       <r>   -39.1443     0.0000    12.0000 </r>
       <r>   -38.9595     0.0000    12.0000 </r>
       <r>   -38.7747     0.0000    12.0000 </r>
       <r>   -38.5899     0.0000    12.0000 </r>
       <r>   -38.4051     0.0000    12.0000 </r>
       <r>   -38.2203     0.0000    12.0000 </r>
       <r>   -38.0355     0.0000    12.0000 </r>
       <r>   -37.8507     0.0000    12.0000 </r>
       <r>   -37.6659     0.0000    12.0000 </r>
       <r>   -37.4811     0.0000    12.0000 </r>
       <r>   -37.2963     0.0000    12.0000 </r>
       <r>   -37.1115     0.0000    12.0000 </r>
       <r>   -36.9267     0.0000    12.0000 </r>
       <r>   -36.7419     0.0000    12.0000 </r>
       <r>   -36.5571     0.0000    12.0000 </r>
       <r>   -36.3723     0.0000    12.0000 </r>
       <r>   -36.1875     0.0000    12.0000 </r>
       <r>   -36.0027     0.0000    12.0000 </r>
       <r>   -35.8179     0.0000    12.0000 </r>
       <r>   -35.6331     0.0000    12.0000 </r>
       <r>   -35.4483     0.0000    12.0000 </r>
       <r>   -35.2635     0.0000    12.0000 </r>
       <r>   -35.0787     0.0000    12.0000 </r>
       <r>   -34.8939     0.0000    12.0000 </r>
       <r>   -34.7091     0.0000    12.0000 </r>
       <r>   -34.5243     0.0000    12.0000 </r>
       <r>   -34.3395     0.0000    12.0000 </r>
       <r>   -34.1547     0.0000    12.0000 </r>
       <r>   -33.9699     0.0000    12.0000 </r>
       <r>   -33.7851     0.0000    12.0000 </r>
       <r>   -33.6003     0.0000    12.0000 </r>
       <r>   -33.4155     0.0000    12.0000 </r>
       <r>   -33.2307     0.0000    12.0000 </r>
       <r>   -33.0459     0.0000    12.0000 </r>
       <r>   -32.8611     0.0000    12.0000 </r>
       <r>   -32.6763     0.0000    12.0000 </r>
       <r>   -32.4915     0.0000    12.0000 </r>
       <r>   -32.3067     0.0000    12.0000 </r>
       <r>   -32.1219     0.0000    12.0000 </r>
       <r>   -31.9371     0.0000    12.0000 </r>
       <r>   -31.7523     0.0000    12.0000 </r>
       <r>   -31.5675     0.0000    12.0000 </r>
       <r>   -31.3827     0.0000    12.0000 </r>
       <r>   -31.1979     0.0000    12.0000 </r>
       <r>   -31.0131     0.0000    12.0000 </r>
       <r>   -30.8283     0.0000    12.0000 </r>
       <r>   -30.6435     0.0000    12.0000 </r>
       <r>   -30.4587     0.0000    12.0000 </r>
       <r>   -30.2739     0.0000    12.0000 </r>
       <r>   -30.0891     0.0000    12.0000 </r>
       <r>   -29.9043     0.0000    12.0000 </r>
       <r>   -29.7195     0.0000    12.0000 </r>
       <r>   -29.5347     0.0000    12.0000 </r>
       <r>   -29.3499     0.0000    12.0000 </r>
       <r>   -29.1651     0.0000    12.0000 </r>
       <r>   -28.9803     0.0000    12.0000 </r>
       <r>   -28.7955     0.0000    12.0000 </r>
       <r>   -28.6107     0.0000    12.0000 </r>
       <r>   -28.4259     0.0000    12.0000 </r>
       <r>   -28.2411     0.0000    12.0000 </r>
       <r>   -28.0563     0.0000    12.0000 </r>
       <r>   -27.8715     0.0000    12.0000 </r>
       <r>   -27.6867     0.0000    12.0000 </r>
       <r>   -27.5019     0.0000    12.0000 </r>
       <r>   -27.3171     0.0000    12.0000 </r>
       <r>   -27.1323     0.0000    12.0000 </r>
       <r>   -26.9475     0.0000    12.0000 </r>
       <r>   -26.7627     0.0000    12.0000 </r>
       <r>   -26.5779     0.0000    12.0000 </r>
       <r>   -26.3931     0.0000    12.0000 </r>
       <r>   -26.2083     0.0000    12.0000 </r>
       <r>   -26.0235     0.0000    12.0000 </r>
       <r>   -25.8387     0.0000    12.0000 </r>
       <r>   -25.6539     0.0000    12.0000 </r>
       <r>   -25.4691     0.0000    12.0000 </r>
       <r>   -25.2843     0.0000    12.0000 </r>
       <r>   -25.0995     0.0000    12.0000 </r>
       <r>   -24.9147     0.0000    12.0000 </r>
       <r>   -24.7299     0.0000    12.0000 </r>
       <r>   -24.5451     0.0000    12.0000 </r>
       <r>   -24.3603     0.0000    12.0000 </r>
       <r>   -24.1755     0.0000    12.0000 </r>
       <r>   -23.9907     0.0000    12.0000 </r>
       <r>   -23.8059     0.0000    12.0000 </r>
       <r>   -23.6211     0.0000    12.0000 </r>
       <r>   -23.4363     0.0000    12.0000 </r>
       <r>   -23.2515     0.0000    12.0000 </r>
       <r>   -23.0667     0.0000    12.0000 </r>
       <r>   -22.8819     0.0000    12.0000 </r>
       <r>   -22.6971     0.0000    12.0000 </r>
       <r>   -22.5123     0.0000    12.0000 </r>
       <r>   -22.3275     0.0000    12.0000 </r>
       <r>   -22.1427     0.0000    12.0000 </r>
       <r>   -21.9579     0.0000    12.0000 </r>
       <r>   -21.7731     0.0000    12.0000 </r>
       <r>   -21.5883     0.0000    12.0000 </r>
       <r>   -21.4035     0.0000    12.0000 </r>
       <r>   -21.2187     0.0000    12.0000 </r>
       <r>   -21.0339     0.0000    12.0000 </r>
       <r>   -20.8491     0.0000    12.0000 </r>
       <r>   -20.6643     0.0000    12.0000 </r>
       <r>   -20.4795     0.0000    12.0000 </r>
       <r>   -20.2947     0.0000    12.0000 </r>
       <r>   -20.1099     0.0000    12.0000 </r>
       <r>   -19.9251     0.0000    12.0000 </r>
       <r>   -19.7403     0.0000    12.0000 </r>
       <r>   -19.5555     0.0000    12.0000 </r>
       <r>   -19.3707     0.0000    12.0000 </r>
       <r>   -19.1859     0.0000    12.0000 </r>
       <r>   -19.0011     0.0000    16.0000 </r>
       <r>   -18.8163     0.0000    44.0000 </r>
       <r>   -18.6315     0.0000    88.0000 </r>
       <r>   -18.4467     0.0000   124.0000 </r>
       <r>   -18.2619     0.0000   152.0000 </r>
       <r>   -18.0771     0.0000   172.0000 </r>
       <r>   -17.8923     0.0000   172.0000 </r>
       <r>   -17.7075     0.0000   172.0000 </r>
       <r>   -17.5227     0.0000   172.0000 </r>
       <r>   -17.3379     0.0000   172.0000 </r>
       <r>   -17.1531     0.0000   172.0000 </r>
       <r>   -16.9683     0.0000   172.0000 </r>
       <r>   -16.7835     0.0000   172.0000 </r>
       <r>   -16.5987     0.0000   172.0000 </r>
       <r>   -16.4139     0.0000   172.0000 </r>
       <r>   -16.2291     0.0000   172.0000 </r>
       <r>   -16.0443     0.0000   172.0000 </r>
       <r>   -15.8595     0.0000   172.0000 </r>
       <r>   -15.6747     0.0000   172.0000 </r>
       <r>   -15.4899     0.0000   172.0000 </r>
       <r>   -15.3051     0.0000   172.0000 </r>
       <r>   -15.1203     0.0000   172.0000 </r>
       <r>   -14.9355     0.0000   172.0000 </r>
       <r>   -14.7507     0.0000   172.0000 </r>
       <r>   -14.5659     0.0000   172.0000 </r>
       <r>   -14.3811     0.0000   172.0000 </r>
       <r>   -14.1963     0.0000   172.0000 </r>
       <r>   -14.0115     0.0000   172.0000 </r>
       <r>   -13.8267     0.0000   172.0000 </r>
       <r>   -13.6419     0.0000   174.0000 </r>
       <r>   -13.4571     0.0000   180.0000 </r>
       <r>   -13.2723     0.0000   180.0000 </r>
       <r>   -13.0875     0.0000   180.0000 </r>
       <r>   -12.9027     0.0000   182.0000 </r>
       <r>   -12.7179     0.0000   190.0000 </r>
       <r>   -12.5331     0.0000   196.0000 </r>
       <r>   -12.3483     0.0000   196.0000 </r>
       <r>   -12.1635     0.0000   196.0000 </r>
       <r>   -11.9787     0.0000   198.0000 </r>
       <r>   -11.7939     0.0000   204.0000 </r>
       <r>   -11.6091     0.0000   204.0000 </r>
       <r>   -11.4243     0.0000   204.0000 </r>
       <r>   -11.2395     0.0000   204.0000 </r>
       <r>   -11.0547     0.0000   204.0000 </r>
       <r>   -10.8699     0.0000   204.0000 </r>
       <r>   -10.6851     0.0000   204.0000 </r>
       <r>   -10.5003     0.0000   204.0000 </r>
       <r>   -10.3155     0.0000   204.0000 </r>
       <r>   -10.1307     0.0000   204.0000 </r>
       <r>    -9.9459     0.0000   204.0000 </r>
       <r>    -9.7611     0.0000   204.0000 </r>
       <r>    -9.5763     0.0000   204.0000 </r>
       <r>    -9.3915     0.0000   204.0000 </r>
       <r>    -9.2067    10.3003   205.5876 </r>
       <r>    -9.0219    15.8608   207.5448 </r>
       <r>    -8.8371    11.8869   209.3596 </r>
       <r>    -8.6523    13.0716   211.9878 </r>
       <r>    -8.4675    34.1460   215.7397 </r>
       <r>    -8.2827    12.4748   220.0476 </r>
       <r>    -8.0979    11.5728   222.8652 </r>
       <r>    -7.9131    19.5258   227.5566 </r>
       <r>    -7.7283    10.9264   231.1170 </r>
       <r>    -7.5435    25.7384   233.9139 </r>
       <r>    -7.3587     0.0000   236.0000 </r>
       <r>    -7.1739     0.0000   236.0000 </r>
       <r>    -6.9891     0.0000   236.0000 </r>
       <r>    -6.8043     0.0000   236.0000 </r>
       <r>    -6.6195     0.0000   236.0000 </r>
       <r>    -6.4347     0.0000   236.0000 </r>
       <r>    -6.2499    22.0385   237.7258 </r>
       <r>    -6.0651    16.6179   242.3424 </r>
       <r>    -5.8803    14.7665   244.5031 </r>
       <r>    -5.6955    29.2879   249.1467 </r>
       <r>    -5.5107    16.2456   252.8969 </r>
       <r>    -5.3259    22.5611   256.5785 </r>
       <r>    -5.1411     9.2420   259.4263 </r>
       <r>    -4.9563     4.6217   260.2468 </r>
       <r>    -4.7715     8.6805   261.6151 </r>
       <r>    -4.5867     9.7670   263.3905 </r>
       <r>    -4.4019     8.2544   264.8753 </r>
       <r>    -4.2171     6.6650   266.0998 </r>
       <r>    -4.0323     4.7657   267.2159 </r>
       <r>    -3.8475     1.7596   267.8077 </r>
       <r>    -3.6627     0.2835   267.9925 </r>
       <r>    -3.4779     0.0000   268.0000 </r>
       <r>    -3.2931     0.0000   268.0000 </r>
       <r>    -3.1083     0.0000   268.0000 </r>
       <r>    -2.9235     0.0000   268.0000 </r>
       <r>    -2.7387     0.0000   268.0000 </r>
       <r>    -2.5539     0.0000   268.0000 </r>
       <r>    -2.3691     0.0000   268.0000 </r>
       <r>    -2.1843     0.0000   268.0000 </r>
       <r>    -1.9995     0.0000   268.0000 </r>
       <r>    -1.8147     0.0000   268.0000 </r>
       <r>    -1.6299     0.0000   268.0000 </r>
       <r>    -1.4451     2.0222   268.0864 </r>
       <r>    -1.2603     8.5274   269.0728 </r>
       <r>    -1.0755    10.7317   271.0132 </r>
       <r>    -0.8907    11.0204   273.1185 </r>
       <r>    -0.7059     7.1724   274.8845 </r>
       <r>    -0.5211    12.9012   277.0359 </r>
       <r>    -0.3363    23.0466   280.6639 </r>
       <r>    -0.1515    38.2798   286.3897 </r>
       <r>     0.0333    33.7688   293.1019 </r>
       <r>     0.2181    33.6935   299.2359 </r>
       <r>     0.4029    33.2082   304.8914 </r>
       <r>     0.5877    50.2699   312.4830 </r>
       <r>     0.7725    41.0399   319.6066 </r>
       <r>     0.9573    42.1293   327.7644 </r>
       <r>     1.1421    28.9811   336.4870 </r>
       <r>     1.3269    38.3991   345.2351 </r>
       <r>     1.5117    45.9656   352.8735 </r>
       <r>     1.6965    45.7088   360.9896 </r>
       <r>     1.8813    37.7838   368.1558 </r>
       <r>     2.0661    35.4881   374.9997 </r>
       <r>     2.2509    51.6893   383.4950 </r>
       <r>     2.4357    57.0426   393.0174 </r>
       <r>     2.6205    49.1407   403.5527 </r>
       <r>     2.8053    58.3709   413.5675 </r>
       <r>     2.9901    50.6682   425.0572 </r>
       <r>     3.1749    52.4091   434.4801 </r>
       <r>     3.3597    44.2082   443.1171 </r>
       <r>     3.5445    28.3807   449.4259 </r>
       <r>     3.7293    19.2546   453.6874 </r>
       <r>     3.9141    19.8399   456.8255 </r>
       <r>     4.0989     7.9173   459.4366 </r>
       <r>     4.2837     0.0001   460.0000 </r>
       <r>     4.4685     0.0000   460.0000 </r>
       <r>     4.6533     0.0000   460.0000 </r>
       <r>     4.8381     0.0000   460.0000 </r>
       <r>     5.0229     0.1874   460.0032 </r>
       <r>     5.2077     2.4711   460.2256 </r>
       <r>     5.3925     7.2522   461.1207 </r>
       <r>     5.5773     9.4510   462.8207 </r>
       <r>     5.7621    18.2099   464.9473 </r>
       <r>     5.9469    14.4062   468.6348 </r>
       <r>     6.1317    11.7720   471.0342 </r>
       <r>     6.3165    12.7387   473.2360 </r>
       <r>     6.5013    15.3232   475.8299 </r>
       <r>     6.6861    17.5626   478.8697 </r>
       <r>     6.8709    20.1013   482.3341 </r>
       <r>     7.0557    24.9495   486.4245 </r>
       <r>     7.2405    31.3305   491.6886 </r>
       <r>     7.4253    38.9782   497.5401 </r>
       <r>     7.6101    28.3137   502.8639 </r>
       <r>     7.7949    51.1237   509.6783 </r>
       <r>     7.9797    35.5021   518.8523 </r>
       <r>     8.1645    21.7023   523.7361 </r>
       <r>     8.3493    19.3724   527.3930 </r>
       <r>     8.5341    22.7463   531.3630 </r>
       <r>     8.7189    29.2306   536.2048 </r>
       <r>     8.9037    41.3847   543.8869 </r>
       <r>     9.0885    20.8483   549.4322 </r>
       <r>     9.2733    15.9613   552.7904 </r>
       <r>     9.4581    13.1765   555.6354 </r>
       <r>     9.6429    14.3194   557.8797 </r>
       <r>     9.8277     6.1436   559.4031 </r>
       <r>    10.0125     0.5962   559.9866 </r>
       <r>    10.1973     0.0000   560.0000 </r>
       <r>    10.3821     0.0000   560.0000 </r>
       <r>    10.5669     0.0000   560.0000 </r>
       <r>    10.7517     0.0000   560.0000 </r>
       <r>    10.9365     0.0000   560.0000 </r>
       <r>    11.1213     0.0000   560.0000 </r>
       <r>    11.3061     0.0000   560.0000 </r>
       <r>    11.4909     0.0000   560.0000 </r>
       <r>    11.6757     0.0000   560.0000 </r>
       <r>    11.8605     0.0000   560.0000 </r>
       <r>    12.0453     0.0000   560.0000 </r>
       <r>    12.2301     0.0000   560.0000 </r>
       <r>    12.4149     0.0000   560.0000 </r>
       <r>    12.5997     0.0000   560.0000 </r>
      </set>
     </set>
    </array>
   </total>
  </dos>
 </calculation>
 <structure name="finalpos" >
  <crystal>
   <varray name="basis" >
    <v>      11.17850000       0.00000000       0.00000000 </v>
    <v>       0.00000000       9.57460000       0.00000000 </v>
    <v>       0.00000000       0.00000000      11.18240000 </v>
   </varray>
   <i name="volume">   1196.84853820 </i>
   <varray name="rec_basis" >
    <v>       0.08945744       0.00000000       0.00000000 </v>
    <v>       0.00000000       0.10444301       0.00000000 </v>
    <v>       0.00000000       0.00000000       0.08942624 </v>
   </varray>
  </crystal>
  <varray name="positions" >
   <v>       0.37539000       0.00017000       0.43687000 </v>
   <v>       0.12461000       0.99984000       0.18687000 </v>
   <v>       0.37461000       0.00017000       0.18687000 </v>
   <v>       0.12539000       0.99984000       0.93687000 </v>
   <v>       0.12461000       0.99984000       0.68687000 </v>
   <v>       0.37461000       0.00017000       0.68687000 </v>
   <v>       0.87539000       0.00017000       0.43687000 </v>
   <v>       0.62461000       0.99984000       0.18687000 </v>
   <v>       0.37539000       0.00017000       0.93687000 </v>
   <v>       0.87539000       0.00017000       0.93687000 </v>
   <v>       0.62461000       0.99984000       0.68687000 </v>
   <v>       0.00013000       0.29519000       0.06281000 </v>
   <v>       0.25013000       0.70481000       0.06281000 </v>
   <v>       0.24987000       0.29519000       0.31282000 </v>
   <v>       0.49987000       0.70481000       0.31282000 </v>
   <v>       0.50013000       0.29519000       0.06281000 </v>
   <v>       0.75013000       0.70481000       0.06281000 </v>
   <v>       0.74987000       0.29519000       0.31282000 </v>
   <v>       0.99987000       0.70481000       0.31282000 </v>
   <v>       0.00013000       0.29519000       0.56281000 </v>
   <v>       0.25013000       0.70481000       0.56281000 </v>
   <v>       0.24987000       0.29519000       0.81282000 </v>
   <v>       0.49987000       0.70481000       0.81282000 </v>
   <v>       0.50013000       0.29519000       0.56281000 </v>
   <v>       0.75013000       0.70481000       0.56281000 </v>
   <v>       0.74987000       0.29519000       0.81282000 </v>
   <v>       0.99987000       0.70481000       0.81282000 </v>
   <v>       0.25005000       0.32677000       0.06286000 </v>
   <v>       0.00005000       0.67323000       0.06286000 </v>
   <v>       0.49995000       0.32677000       0.31286000 </v>
   <v>       0.24995000       0.67323000       0.31286000 </v>
   <v>       0.75005000       0.32677000       0.06286000 </v>
   <v>       0.50005000       0.67323000       0.06286000 </v>
   <v>       0.99995000       0.32677000       0.31286000 </v>
   <v>       0.74995000       0.67323000       0.31286000 </v>
   <v>       0.25005000       0.32677000       0.56286000 </v>
   <v>       0.00005000       0.67323000       0.56286000 </v>
   <v>       0.49995000       0.32677000       0.81286000 </v>
   <v>       0.24995000       0.67323000       0.81286000 </v>
   <v>       0.75005000       0.32677000       0.56286000 </v>
   <v>       0.50005000       0.67323000       0.56286000 </v>
   <v>       0.99995000       0.32677000       0.81286000 </v>
   <v>       0.74995000       0.67323000       0.81286000 </v>
   <v>       0.49987000       0.07798000       0.06246000 </v>
   <v>       0.24987000       0.92202000       0.06246000 </v>
   <v>       0.25013000       0.07798000       0.31246000 </v>
   <v>       0.00013000       0.92202000       0.31246000 </v>
   <v>       0.99987000       0.07798000       0.06246000 </v>
   <v>       0.74987000       0.92202000       0.06246000 </v>
   <v>       0.75013000       0.07798000       0.31246000 </v>
   <v>       0.50013000       0.92202000       0.31246000 </v>
   <v>       0.49987000       0.07798000       0.56246000 </v>
   <v>       0.24987000       0.92202000       0.56246000 </v>
   <v>       0.25013000       0.07798000       0.81246000 </v>
   <v>       0.00013000       0.92202000       0.81246000 </v>
   <v>       0.99987000       0.07798000       0.56246000 </v>
   <v>       0.74987000       0.92202000       0.56246000 </v>
   <v>       0.75013000       0.07798000       0.81246000 </v>
   <v>       0.50013000       0.92202000       0.81246000 </v>
  </varray>
 </structure>
</modeling>
