<?xml version="1.0" encoding="ISO-8859-1"?>
<modeling>
 <generator>
  <i name="program" type="string">vasp </i>
  <i name="version" type="string">5.4.4.18Apr17-6-g9f103f2a35  </i>
  <i name="subversion" type="string">(build Jul 31 2017 11:33:29) complex            parallel </i>
  <i name="platform" type="string">LinuxIFC </i>
  <i name="date" type="string">2021 09 29 </i>
  <i name="time" type="string">03:05:53 </i>
 </generator>
 <incar>
  <i type="string" name="SYSTEM"> La2O2S</i>
  <i type="string" name="PREC">normal</i>
  <i type="int" name="NELMIN">     4</i>
  <i type="int" name="IBRION">     2</i>
  <i type="int" name="NFREE">    10</i>
  <i name="EDIFF">      0.00000100</i>
  <i name="EDIFFG">     -0.01000000</i>
  <i type="int" name="NSW">     1</i>
  <i type="int" name="ISIF">     2</i>
  <i name="ENCUT">    600.00000000</i>
  <i name="ENAUG">    900.00000000</i>
  <i type="int" name="ISMEAR">    -5</i>
  <i type="logical" name="LWAVE"> F  </i>
  <i type="logical" name="LCHARG"> F  </i>
  <v type="int" name="KPOINT_BSE">    -1     0     0     0</v>
 </incar>
 <structure name="primitive_cell" >
  <crystal>
   <varray name="basis" >
    <v>      11.17850000       0.00000000       0.00000000 </v>
    <v>       0.00000000       9.57460000       0.00000000 </v>
    <v>       0.00000000       0.00000000      11.18240000 </v>
   </varray>
   <i name="volume">   1196.84853820 </i>
   <varray name="rec_basis" >
    <v>       0.08945744       0.00000000       0.00000000 </v>
    <v>       0.00000000       0.10444301       0.00000000 </v>
    <v>       0.00000000       0.00000000       0.08942624 </v>
   </varray>
  </crystal>
  <varray name="positions" >
   <v>       0.37539000       0.00017000       0.43687000 </v>
   <v>      -0.49987000      -0.07798000       0.31246000 </v>
   <v>       0.25013000       0.07798000       0.31246000 </v>
   <v>       0.49987000       0.07798000      -0.43754000 </v>
   <v>       0.24987000      -0.07798000      -0.43754000 </v>
   <v>      -0.37461000      -0.00016000       0.43687000 </v>
   <v>       0.37461000       0.00017000      -0.31313000 </v>
   <v>       0.37461000       0.00017000       0.18687000 </v>
   <v>       0.49987000      -0.29519000       0.31282000 </v>
   <v>       0.24987000       0.29519000       0.31282000 </v>
   <v>      -0.49987000       0.29519000      -0.43719000 </v>
   <v>       0.25013000      -0.29519000      -0.43719000 </v>
   <v>       0.49995000       0.32677000       0.31286000 </v>
   <v>       0.24995000      -0.32677000       0.31286000 </v>
   <v>      -0.49995000      -0.32677000      -0.43714000 </v>
   <v>       0.25005000       0.32677000      -0.43714000 </v>
   <v>      -0.37539000      -0.00016000      -0.31313000 </v>
   <v>       0.12461000      -0.00016000       0.18687000 </v>
   <v>       0.12461000      -0.00016000      -0.31313000 </v>
   <v>       0.49987000       0.07798000       0.06246000 </v>
   <v>      -0.24987000       0.07798000       0.31246000 </v>
   <v>      -0.25013000      -0.07798000      -0.43754000 </v>
   <v>       0.24987000      -0.07798000       0.06246000 </v>
   <v>       0.00013000      -0.07798000       0.31246000 </v>
   <v>      -0.49987000      -0.07798000      -0.18754000 </v>
   <v>      -0.00013000       0.07798000      -0.43754000 </v>
   <v>       0.25013000       0.07798000      -0.18754000 </v>
   <v>      -0.49987000       0.29519000       0.06281000 </v>
   <v>      -0.25013000       0.29519000       0.31282000 </v>
   <v>       0.25013000      -0.29519000       0.06281000 </v>
   <v>      -0.24987000      -0.29519000      -0.43719000 </v>
   <v>      -0.00013000      -0.29519000       0.31282000 </v>
   <v>       0.00013000       0.29519000      -0.43719000 </v>
   <v>       0.49987000      -0.29519000      -0.18718000 </v>
   <v>       0.24987000       0.29519000      -0.18718000 </v>
   <v>      -0.49995000      -0.32677000       0.06286000 </v>
   <v>       0.25005000       0.32677000       0.06286000 </v>
   <v>      -0.25005000      -0.32677000       0.31286000 </v>
   <v>      -0.24995000       0.32677000      -0.43714000 </v>
   <v>      -0.00005000       0.32677000       0.31286000 </v>
   <v>       0.00005000      -0.32677000      -0.43714000 </v>
   <v>       0.49995000       0.32677000      -0.18714000 </v>
   <v>       0.24995000      -0.32677000      -0.18714000 </v>
   <v>      -0.12461000       0.00017000       0.43687000 </v>
   <v>       0.37539000       0.00017000      -0.06313000 </v>
   <v>      -0.25013000      -0.07798000       0.06246000 </v>
   <v>      -0.00013000       0.07798000       0.06246000 </v>
   <v>      -0.24987000       0.07798000      -0.18754000 </v>
   <v>       0.00013000      -0.07798000      -0.18754000 </v>
   <v>      -0.12539000       0.00017000       0.18687000 </v>
   <v>       0.12539000      -0.00016000      -0.06313000 </v>
   <v>      -0.37461000      -0.00016000      -0.06313000 </v>
   <v>      -0.24987000      -0.29519000       0.06281000 </v>
   <v>       0.00013000       0.29519000       0.06281000 </v>
   <v>      -0.25013000       0.29519000      -0.18718000 </v>
   <v>      -0.00013000      -0.29519000      -0.18718000 </v>
   <v>      -0.24995000       0.32677000       0.06286000 </v>
   <v>       0.00005000      -0.32677000       0.06286000 </v>
   <v>      -0.25005000      -0.32677000      -0.18714000 </v>
   <v>      -0.00005000       0.32677000      -0.18714000 </v>
   <v>      -0.12461000       0.00017000      -0.06313000 </v>
  </varray>
 </structure>
 <varray name="primitive_index" >
  <v type="int" >        1 </v>
  <v type="int" >       53 </v>
  <v type="int" >       48 </v>
  <v type="int" >       54 </v>
  <v type="int" >       55 </v>
  <v type="int" >        3 </v>
  <v type="int" >        8 </v>
  <v type="int" >       11 </v>
  <v type="int" >       17 </v>
  <v type="int" >       16 </v>
  <v type="int" >       26 </v>
  <v type="int" >       23 </v>
  <v type="int" >       32 </v>
  <v type="int" >       33 </v>
  <v type="int" >       43 </v>
  <v type="int" >       38 </v>
  <v type="int" >       10 </v>
  <v type="int" >        2 </v>
  <v type="int" >        7 </v>
  <v type="int" >       46 </v>
  <v type="int" >       52 </v>
  <v type="int" >       59 </v>
  <v type="int" >       47 </v>
  <v type="int" >       49 </v>
  <v type="int" >       61 </v>
  <v type="int" >       58 </v>
  <v type="int" >       56 </v>
  <v type="int" >       18 </v>
  <v type="int" >       20 </v>
  <v type="int" >       15 </v>
  <v type="int" >       27 </v>
  <v type="int" >       21 </v>
  <v type="int" >       22 </v>
  <v type="int" >       25 </v>
  <v type="int" >       24 </v>
  <v type="int" >       35 </v>
  <v type="int" >       30 </v>
  <v type="int" >       37 </v>
  <v type="int" >       42 </v>
  <v type="int" >       36 </v>
  <v type="int" >       39 </v>
  <v type="int" >       40 </v>
  <v type="int" >       41 </v>
  <v type="int" >       12 </v>
  <v type="int" >        6 </v>
  <v type="int" >       51 </v>
  <v type="int" >       50 </v>
  <v type="int" >       60 </v>
  <v type="int" >       57 </v>
  <v type="int" >        4 </v>
  <v type="int" >        5 </v>
  <v type="int" >        9 </v>
  <v type="int" >       19 </v>
  <v type="int" >       14 </v>
  <v type="int" >       28 </v>
  <v type="int" >       29 </v>
  <v type="int" >       34 </v>
  <v type="int" >       31 </v>
  <v type="int" >       45 </v>
  <v type="int" >       44 </v>
  <v type="int" >       13 </v>
 </varray>
 <kpoints>
  <generation param="Gamma">
   <v type="int" name="divisions">       2        2        2 </v>
   <v name="usershift">      0.00000000       0.00000000       0.00000000 </v>
   <v name="genvec1">      0.50000000       0.00000000       0.00000000 </v>
   <v name="genvec2">      0.00000000       0.50000000       0.00000000 </v>
   <v name="genvec3">      0.00000000       0.00000000       0.50000000 </v>
   <v name="shift">      0.00000000       0.00000000       0.00000000 </v>
  </generation>
  <varray name="kpointlist" >
   <v>       0.00000000       0.00000000       0.00000000 </v>
   <v>       0.50000000       0.00000000       0.00000000 </v>
   <v>       0.00000000       0.50000000       0.00000000 </v>
   <v>       0.50000000       0.50000000       0.00000000 </v>
   <v>       0.00000000       0.00000000       0.50000000 </v>
   <v>       0.50000000       0.00000000       0.50000000 </v>
   <v>       0.00000000       0.50000000       0.50000000 </v>
   <v>       0.50000000       0.50000000       0.50000000 </v>
  </varray>
  <varray name="weights" >
   <v>       0.12500000 </v>
   <v>       0.12500000 </v>
   <v>       0.12500000 </v>
   <v>       0.12500000 </v>
   <v>       0.12500000 </v>
   <v>       0.12500000 </v>
   <v>       0.12500000 </v>
   <v>       0.12500000 </v>
  </varray>
  <varray name="tetrahedronlist"  type="int" >
   <v type="int" >        2        1        2        4        5 </v>
   <v type="int" >        2        1        3        4        5 </v>
   <v type="int" >        2        3        4        5        7 </v>
   <v type="int" >        2        2        4        5        6 </v>
   <v type="int" >        2        4        5        6        8 </v>
   <v type="int" >        2        4        5        7        8 </v>
   <v type="int" >        2        1        2        3        6 </v>
   <v type="int" >        2        2        3        4        6 </v>
   <v type="int" >        2        3        4        6        8 </v>
   <v type="int" >        2        1        3        5        6 </v>
   <v type="int" >        2        3        5        6        7 </v>
   <v type="int" >        2        3        6        7        8 </v>
   <v type="int" >        2        2        3        4        7 </v>
   <v type="int" >        2        1        2        3        7 </v>
   <v type="int" >        2        1        2        5        7 </v>
   <v type="int" >        2        2        4        7        8 </v>
   <v type="int" >        2        2        6        7        8 </v>
   <v type="int" >        2        2        5        6        7 </v>
   <v type="int" >        2        1        3        4        8 </v>
   <v type="int" >        2        1        2        4        8 </v>
   <v type="int" >        2        1        2        6        8 </v>
   <v type="int" >        2        1        3        7        8 </v>
   <v type="int" >        2        1        5        7        8 </v>
   <v type="int" >        2        1        5        6        8 </v>
  </varray>
  <i name="volumeweight">      0.02083333 </i>
 </kpoints>
 <parameters>
  <separator name="general" >
   <i type="string" name="SYSTEM">La2O2S</i>
   <i type="logical" name="LCOMPAT"> F  </i>
  </separator>
  <separator name="electronic" >
   <i type="string" name="PREC">normal</i>
   <i name="ENMAX">    600.00000000</i>
   <i name="ENAUG">    900.00000000</i>
   <i name="EDIFF">      0.00000100</i>
   <i type="int" name="IALGO">    38</i>
   <i type="int" name="IWAVPR">    11</i>
   <i type="int" name="NBANDS">   280</i>
   <i name="NELECT">    468.00000000</i>
   <i type="int" name="TURBO">     0</i>
   <i type="int" name="IRESTART">     0</i>
   <i type="int" name="NREBOOT">     0</i>
   <i type="int" name="NMIN">     0</i>
   <i name="EREF">      0.00000000</i>
   <separator name="electronic smearing" >
    <i type="int" name="ISMEAR">    -5</i>
    <i name="SIGMA">      0.20000000</i>
    <i name="KSPACING">      0.50000000</i>
    <i type="logical" name="KGAMMA"> T  </i>
   </separator>
   <separator name="electronic projectors" >
    <i type="logical" name="LREAL"> F  </i>
    <v name="ROPT">      0.00000000      0.00000000      0.00000000      0.00000000      0.00000000</v>
    <i type="int" name="LMAXPAW">  -100</i>
    <i type="int" name="LMAXMIX">     2</i>
    <i type="logical" name="NLSPLINE"> F  </i>
   </separator>
   <separator name="electronic startup" >
    <i type="int" name="ISTART">     0</i>
    <i type="int" name="ICHARG">     2</i>
    <i type="int" name="INIWAV">     1</i>
   </separator>
   <separator name="electronic spin" >
    <i type="int" name="ISPIN">     1</i>
    <i type="logical" name="LNONCOLLINEAR"> F  </i>
    <v name="MAGMOM">      1.00000000      1.00000000      1.00000000      1.00000000      1.00000000      1.00000000      1.00000000      1.00000000      1.00000000      1.00000000      1.00000000      1.00000000      1.00000000      1.00000000      1.00000000      1.00000000      1.00000000      1.00000000      1.00000000      1.00000000
      1.00000000      1.00000000      1.00000000      1.00000000      1.00000000      1.00000000      1.00000000      1.00000000      1.00000000      1.00000000      1.00000000      1.00000000      1.00000000      1.00000000      1.00000000      1.00000000      1.00000000      1.00000000      1.00000000      1.00000000
      1.00000000      1.00000000      1.00000000      1.00000000      1.00000000      1.00000000      1.00000000      1.00000000      1.00000000      1.00000000      1.00000000      1.00000000      1.00000000      1.00000000      1.00000000      1.00000000      1.00000000      1.00000000      1.00000000      1.00000000
      1.00000000</v>
    <i name="NUPDOWN">     -1.00000000</i>
    <i type="logical" name="LSORBIT"> F  </i>
    <v name="SAXIS">      0.00000000      0.00000000      1.00000000</v>
    <i type="logical" name="LSPIRAL"> F  </i>
    <v name="QSPIRAL">      0.00000000      0.00000000      0.00000000</v>
    <i type="logical" name="LZEROZ"> F  </i>
   </separator>
   <separator name="electronic exchange-correlation" >
    <i type="logical" name="LASPH"> F  </i>
    <i type="logical" name="LMETAGGA"> F  </i>
   </separator>
   <separator name="electronic convergence" >
    <i type="int" name="NELM">    60</i>
    <i type="int" name="NELMDL">    -5</i>
    <i type="int" name="NELMIN">     4</i>
    <i name="ENINI">    600.00000000</i>
    <separator name="electronic convergence detail" >
     <i type="logical" name="LDIAG"> T  </i>
     <i type="logical" name="LSUBROT"> F  </i>
     <i name="WEIMIN">      0.00100000</i>
     <i name="EBREAK">      0.00000000</i>
     <i name="DEPER">      0.30000000</i>
     <i type="int" name="NRMM">     4</i>
     <i name="TIME">      0.40000000</i>
    </separator>
   </separator>
   <separator name="electronic mixer" >
    <i name="AMIX">      0.40000000</i>
    <i name="BMIX">      1.00000000</i>
    <i name="AMIN">      0.10000000</i>
    <i name="AMIX_MAG">      1.60000000</i>
    <i name="BMIX_MAG">      1.00000000</i>
    <separator name="electronic mixer details" >
     <i type="int" name="IMIX">     4</i>
     <i type="logical" name="MIXFIRST"> F  </i>
     <i type="int" name="MAXMIX">   -45</i>
     <i name="WC">    100.00000000</i>
     <i type="int" name="INIMIX">     1</i>
     <i type="int" name="MIXPRE">     1</i>
     <i type="int" name="MREMOVE">     5</i>
    </separator>
   </separator>
   <separator name="electronic dipolcorrection" >
    <i type="logical" name="LDIPOL"> F  </i>
    <i type="logical" name="LMONO"> F  </i>
    <i type="int" name="IDIPOL">     0</i>
    <i name="EPSILON">      1.00000000</i>
    <v name="DIPOL">   -100.00000000   -100.00000000   -100.00000000</v>
    <i name="EFIELD">      0.00000000</i>
   </separator>
  </separator>
  <separator name="grids" >
   <i type="int" name="NGX">    70</i>
   <i type="int" name="NGY">    60</i>
   <i type="int" name="NGZ">    70</i>
   <i type="int" name="NGXF">   140</i>
   <i type="int" name="NGYF">   120</i>
   <i type="int" name="NGZF">   140</i>
   <i type="logical" name="ADDGRID"> F  </i>
  </separator>
  <separator name="ionic" >
   <i type="int" name="NSW">     1</i>
   <i type="int" name="IBRION">     2</i>
   <i type="int" name="MDALGO">     0</i>
   <i type="int" name="ISIF">     2</i>
   <i name="PSTRESS">      0.00000000</i>
   <i name="EDIFFG">     -0.01000000</i>
   <i type="int" name="NFREE">    10</i>
   <i name="POTIM">      0.50000000</i>
   <i name="SMASS">     -3.00000000</i>
   <i name="SCALEE">      1.00000000</i>
  </separator>
  <separator name="ionic md" >
   <i name="TEBEG">      0.00010000</i>
   <i name="TEEND">      0.00010000</i>
   <i type="int" name="NBLOCK">     1</i>
   <i type="int" name="KBLOCK">     1</i>
   <i type="int" name="NPACO">   256</i>
   <i name="APACO">     16.00000000</i>
  </separator>
  <separator name="symmetry" >
   <i type="int" name="ISYM">     2</i>
   <i name="SYMPREC">      0.00001000</i>
  </separator>
  <separator name="dos" >
   <i type="int" name="LORBIT">     0</i>
   <v name="RWIGS">     -1.00000000     -1.00000000     -1.00000000     -1.00000000     -1.00000000</v>
   <i type="int" name="NEDOS">   301</i>
   <i name="EMIN">     10.00000000</i>
   <i name="EMAX">    -10.00000000</i>
   <i name="EFERMI">      0.00000000</i>
  </separator>
  <separator name="writing" >
   <i type="int" name="NWRITE">     2</i>
   <i type="logical" name="LWAVE"> F  </i>
   <i type="logical" name="LDOWNSAMPLE"> F  </i>
   <i type="logical" name="LCHARG"> F  </i>
   <i type="logical" name="LPARD"> F  </i>
   <i type="logical" name="LVTOT"> F  </i>
   <i type="logical" name="LVHAR"> F  </i>
   <i type="logical" name="LELF"> F  </i>
   <i type="logical" name="LOPTICS"> F  </i>
   <v name="STM">      0.00000000      0.00000000      0.00000000      0.00000000      0.00000000      0.00000000      0.00000000</v>
  </separator>
  <separator name="performance" >
   <i type="int" name="NPAR">    28</i>
   <i type="int" name="NSIM">     4</i>
   <i type="int" name="NBLK">    -1</i>
   <i type="logical" name="LPLANE"> T  </i>
   <i type="logical" name="LSCALAPACK"> T  </i>
   <i type="logical" name="LSCAAWARE"> F  </i>
   <i type="logical" name="LSCALU"> F  </i>
   <i type="logical" name="LASYNC"> F  </i>
   <i type="logical" name="LORBITALREAL"> F  </i>
  </separator>
  <separator name="miscellaneous" >
   <i type="int" name="IDIOT">     3</i>
   <i type="int" name="ISPECIAL">     0</i>
   <i type="logical" name="LMUSIC"> F  </i>
   <v name="POMASS">      7.01000000     24.30500000    208.98000000     32.06600000     16.00000000</v>
   <v name="DARWINR">      0.00000000      0.00000000      0.00000000      0.00000000      0.00000000</v>
   <v name="DARWINV">      1.00000000      1.00000000      1.00000000      1.00000000      1.00000000</v>
   <i type="logical" name="LCORR"> T  </i>
  </separator>
  <i type="logical" name="GGA_COMPAT"> T  </i>
  <i type="logical" name="LBERRY"> F  </i>
  <i type="int" name="ICORELEVEL">     0</i>
  <i type="logical" name="LDAU"> F  </i>
  <i type="int" name="I_CONSTRAINED_M">     0</i>
  <separator name="electronic exchange-correlation" >
   <i type="string" name="GGA">--</i>
   <i type="int" name="VOSKOWN">     0</i>
   <i type="logical" name="LHFCALC"> F  </i>
   <i type="string" name="PRECFOCK"></i>
   <i type="logical" name="LSYMGRAD"> F  </i>
   <i type="logical" name="LHFONE"> F  </i>
   <i type="logical" name="LRHFCALC"> F  </i>
   <i type="logical" name="LTHOMAS"> F  </i>
   <i type="logical" name="LMODELHF"> F  </i>
   <i name="ENCUT4O">     -1.00000000</i>
   <i type="int" name="EXXOEP">     0</i>
   <i type="int" name="FOURORBIT">     0</i>
   <i name="AEXX">      0.00000000</i>
   <i name="HFALPHA">      0.00000000</i>
   <i name="MCALPHA">      0.00000000</i>
   <i name="ALDAX">      1.00000000</i>
   <i name="AGGAX">      1.00000000</i>
   <i name="ALDAC">      1.00000000</i>
   <i name="AGGAC">      1.00000000</i>
   <i type="int" name="NKREDX">     1</i>
   <i type="int" name="NKREDY">     1</i>
   <i type="int" name="NKREDZ">     1</i>
   <i type="logical" name="SHIFTRED"> F  </i>
   <i type="logical" name="ODDONLY"> F  </i>
   <i type="logical" name="EVENONLY"> F  </i>
   <i type="int" name="LMAXFOCK">     0</i>
   <i type="int" name="NMAXFOCKAE">     0</i>
   <i type="logical" name="LFOCKAEDFT"> F  </i>
   <i name="HFSCREEN">      0.00000000</i>
   <i name="HFSCREENC">      0.00000000</i>
   <i type="int" name="NBANDSGWLOW">     0</i>
  </separator>
  <separator name="vdW DFT" >
   <i type="logical" name="LUSE_VDW"> F  </i>
   <i name="Zab_VDW">     -0.84910000</i>
   <i name="PARAM1">      0.12340000</i>
   <i name="PARAM2">      1.00000000</i>
   <i name="PARAM3">      0.00000000</i>
  </separator>
  <separator name="model GW" >
   <i type="int" name="MODEL_GW">     0</i>
   <i name="MODEL_EPS0">     11.77228070</i>
   <i name="MODEL_ALPHA">      1.00000000</i>
  </separator>
  <separator name="linear response parameters" >
   <i type="logical" name="LEPSILON"> F  </i>
   <i type="logical" name="LRPA"> F  </i>
   <i type="logical" name="LNABLA"> F  </i>
   <i type="logical" name="LVEL"> F  </i>
   <i type="int" name="KINTER">     0</i>
   <i name="CSHIFT">      0.10000000</i>
   <i name="OMEGAMAX">     -1.00000000</i>
   <i name="DEG_THRESHOLD">      0.00200000</i>
   <i name="RTIME">     -0.10000000</i>
   <i name="WPLASMAI">      0.00000000</i>
   <v name="DFIELD">      0.00000000      0.00000000      0.00000000</v>
   <v name="WPLASMA">      0.00000000      0.00000000      0.00000000      0.00000000      0.00000000      0.00000000      0.00000000      0.00000000      0.00000000</v>
  </separator>
  <separator name="orbital magnetization" >
   <i type="logical" name="NUCIND"> F  </i>
   <v name="MAGPOS">      0.00000000      0.00000000      0.00000000</v>
   <i type="logical" name="LNICSALL"> T  </i>
   <i type="logical" name="ORBITALMAG"> F  </i>
   <i type="logical" name="LMAGBLOCH"> F  </i>
   <i type="logical" name="LCHIMAG"> F  </i>
   <i type="logical" name="LGAUGE"> T  </i>
   <i type="int" name="MAGATOM">     0</i>
   <v name="MAGDIPOL">      0.00000000      0.00000000      0.00000000</v>
   <v name="AVECCONST">      0.00000000      0.00000000      0.00000000</v>
  </separator>
  <separator name="response functions" >
   <i type="logical" name="LADDER"> F  </i>
   <i type="logical" name="LRPAFORCE"> F  </i>
   <i type="logical" name="LFXC"> F  </i>
   <i type="logical" name="LHARTREE"> T  </i>
   <i type="int" name="IBSE">     0</i>
   <v type="int" name="KPOINT">    -1     0     0     0</v>
   <i type="logical" name="LTCTE"> F  </i>
   <i type="logical" name="LTETE"> F  </i>
   <i type="logical" name="LTRIPLET"> F  </i>
   <i type="logical" name="LFXCEPS"> F  </i>
   <i type="logical" name="LFXHEG"> F  </i>
   <i type="int" name="NATURALO">     2</i>
   <i type="logical" name="L2ORDER"> F  </i>
   <i type="logical" name="LMP2LT"> F  </i>
   <i type="logical" name="LUSEW"> F  </i>
   <i name="ENCUTGW">     -2.00000000</i>
   <i name="ENCUTGWSOFT">     -2.00000000</i>
   <i name="ENCUTLF">     -1.00000000</i>
   <i type="int" name="LMAXMP2">    -1</i>
   <i name="SCISSOR">      0.00000000</i>
   <i type="int" name="NOMEGA">     0</i>
   <i type="int" name="NOMEGAR">     0</i>
   <i type="int" name="NBANDSGW">    -1</i>
   <i type="int" name="NBANDSO">    -1</i>
   <i type="int" name="NBANDSV">    -1</i>
   <i type="int" name="NELM">     1</i>
   <i type="int" name="NELMHF">     1</i>
   <i type="int" name="DIM">     3</i>
   <i type="int" name="ANTIRES">     0</i>
   <i name="OMEGAMAX">    -30.00000000</i>
   <i name="OMEGAMIN">    -30.00000000</i>
   <i name="OMEGATL">   -200.00000000</i>
   <i type="int" name="OMEGAGRID">   140</i>
   <i name="CSHIFT">     -0.10000000</i>
   <i type="logical" name="SELFENERGY"> F  </i>
   <i type="logical" name="LSPECTRAL"> F  </i>
   <i type="logical" name="LSPECTRALGW"> F  </i>
   <i type="logical" name="LSINGLES"> F  </i>
   <i type="logical" name="LFERMIGW"> F  </i>
   <i type="logical" name="ODDONLYGW"> F  </i>
   <i type="logical" name="EVENONLYGW"> F  </i>
   <i type="int" name="NKREDLFX">     1</i>
   <i type="int" name="NKREDLFY">     1</i>
   <i type="int" name="NKREDLFZ">     1</i>
   <i type="int" name="MAXMEM">  2800</i>
   <i type="int" name="TELESCOPE">     0</i>
   <i type="int" name="TAUPAR">     1</i>
   <i type="int" name="OMEGAPAR">    -1</i>
   <i name="LAMBDA">      1.00000000</i>
  </separator>
  <separator name="External order field" >
   <i name="OFIELD_KAPPA">      0.00000000</i>
   <v name="OFIELD_K">      0.00000000      0.00000000      0.00000000</v>
   <i name="OFIELD_Q6_NEAR">      0.00000000</i>
   <i name="OFIELD_Q6_FAR">      0.00000000</i>
   <i name="OFIELD_A">      0.00000000</i>
  </separator>
 </parameters>
 <atominfo>
  <atoms>      61 </atoms>
  <types>       5 </types>
  <array name="atoms" >
   <dimension dim="1">ion</dimension>
   <field type="string">element</field>
   <field type="int">atomtype</field>
   <set>
    <rc><c>Li</c><c>   1</c></rc>
    <rc><c>Li</c><c>   1</c></rc>
    <rc><c>Li</c><c>   1</c></rc>
    <rc><c>Li</c><c>   1</c></rc>
    <rc><c>Li</c><c>   1</c></rc>
    <rc><c>Li</c><c>   1</c></rc>
    <rc><c>Li</c><c>   1</c></rc>
    <rc><c>Li</c><c>   1</c></rc>
    <rc><c>Li</c><c>   1</c></rc>
    <rc><c>Li</c><c>   1</c></rc>
    <rc><c>Mg</c><c>   2</c></rc>
    <rc><c>Mg</c><c>   2</c></rc>
    <rc><c>Mg</c><c>   2</c></rc>
    <rc><c>Bi</c><c>   3</c></rc>
    <rc><c>Bi</c><c>   3</c></rc>
    <rc><c>Bi</c><c>   3</c></rc>
    <rc><c>Bi</c><c>   3</c></rc>
    <rc><c>Bi</c><c>   3</c></rc>
    <rc><c>Bi</c><c>   3</c></rc>
    <rc><c>Bi</c><c>   3</c></rc>
    <rc><c>Bi</c><c>   3</c></rc>
    <rc><c>Bi</c><c>   3</c></rc>
    <rc><c>Bi</c><c>   3</c></rc>
    <rc><c>Bi</c><c>   3</c></rc>
    <rc><c>Bi</c><c>   3</c></rc>
    <rc><c>Bi</c><c>   3</c></rc>
    <rc><c>Bi</c><c>   3</c></rc>
    <rc><c>Bi</c><c>   3</c></rc>
    <rc><c>Bi</c><c>   3</c></rc>
    <rc><c>S </c><c>   4</c></rc>
    <rc><c>S </c><c>   4</c></rc>
    <rc><c>S </c><c>   4</c></rc>
    <rc><c>S </c><c>   4</c></rc>
    <rc><c>S </c><c>   4</c></rc>
    <rc><c>S </c><c>   4</c></rc>
    <rc><c>S </c><c>   4</c></rc>
    <rc><c>S </c><c>   4</c></rc>
    <rc><c>S </c><c>   4</c></rc>
    <rc><c>S </c><c>   4</c></rc>
    <rc><c>S </c><c>   4</c></rc>
    <rc><c>S </c><c>   4</c></rc>
    <rc><c>S </c><c>   4</c></rc>
    <rc><c>S </c><c>   4</c></rc>
    <rc><c>S </c><c>   4</c></rc>
    <rc><c>S </c><c>   4</c></rc>
    <rc><c>O </c><c>   5</c></rc>
    <rc><c>O </c><c>   5</c></rc>
    <rc><c>O </c><c>   5</c></rc>
    <rc><c>O </c><c>   5</c></rc>
    <rc><c>O </c><c>   5</c></rc>
    <rc><c>O </c><c>   5</c></rc>
    <rc><c>O </c><c>   5</c></rc>
    <rc><c>O </c><c>   5</c></rc>
    <rc><c>O </c><c>   5</c></rc>
    <rc><c>O </c><c>   5</c></rc>
    <rc><c>O </c><c>   5</c></rc>
    <rc><c>O </c><c>   5</c></rc>
    <rc><c>O </c><c>   5</c></rc>
    <rc><c>O </c><c>   5</c></rc>
    <rc><c>O </c><c>   5</c></rc>
    <rc><c>O </c><c>   5</c></rc>
   </set>
  </array>
  <array name="atomtypes" >
   <dimension dim="1">type</dimension>
   <field type="int">atomspertype</field>
   <field type="string">element</field>
   <field>mass</field>
   <field>valence</field>
   <field type="string">pseudopotential</field>
   <set>
    <rc><c>  10</c><c>Li</c><c>      7.01000000</c><c>      3.00000000</c><c>  PAW_PBE Li_sv 10Sep2004               </c></rc>
    <rc><c>   3</c><c>Mg</c><c>     24.30500000</c><c>      2.00000000</c><c>  PAW_PBE Mg 13Apr2007                  </c></rc>
    <rc><c>  16</c><c>Bi</c><c>    208.98000000</c><c>     15.00000000</c><c>  PAW_PBE Bi_d 06Sep2000                </c></rc>
    <rc><c>  16</c><c>S </c><c>     32.06600000</c><c>      6.00000000</c><c>  PAW_PBE S 06Sep2000                   </c></rc>
    <rc><c>  16</c><c>O </c><c>     16.00000000</c><c>      6.00000000</c><c>  PAW_PBE O 08Apr2002                   </c></rc>
   </set>
  </array>
 </atominfo>
 <structure name="initialpos" >
  <crystal>
   <varray name="basis" >
    <v>      11.17850000       0.00000000       0.00000000 </v>
    <v>       0.00000000       9.57460000       0.00000000 </v>
    <v>       0.00000000       0.00000000      11.18240000 </v>
   </varray>
   <i name="volume">   1196.84853820 </i>
   <varray name="rec_basis" >
    <v>       0.08945744       0.00000000       0.00000000 </v>
    <v>       0.00000000       0.10444301       0.00000000 </v>
    <v>       0.00000000       0.00000000       0.08942624 </v>
   </varray>
  </crystal>
  <varray name="positions" >
   <v>       0.37539000       0.00017000       0.43687000 </v>
   <v>       0.12461000       0.99984000       0.18687000 </v>
   <v>       0.62539000       0.99984000       0.43687000 </v>
   <v>       0.87461000       0.00017000       0.18687000 </v>
   <v>       0.12539000       0.99984000       0.93687000 </v>
   <v>       0.37539000       0.00017000       0.93687000 </v>
   <v>       0.12461000       0.99984000       0.68687000 </v>
   <v>       0.37461000       0.00017000       0.68687000 </v>
   <v>       0.62539000       0.99984000       0.93687000 </v>
   <v>       0.62461000       0.99984000       0.68687000 </v>
   <v>       0.37461000       0.00017000       0.18687000 </v>
   <v>       0.87539000       0.00017000       0.43687000 </v>
   <v>       0.87539000       0.00017000       0.93687000 </v>
   <v>       0.00013000       0.29519000       0.06281000 </v>
   <v>       0.25013000       0.70481000       0.06281000 </v>
   <v>       0.24987000       0.29519000       0.31282000 </v>
   <v>       0.49987000       0.70481000       0.31282000 </v>
   <v>       0.50013000       0.29519000       0.06281000 </v>
   <v>       0.75013000       0.70481000       0.06281000 </v>
   <v>       0.74987000       0.29519000       0.31282000 </v>
   <v>       0.99987000       0.70481000       0.31282000 </v>
   <v>       0.00013000       0.29519000       0.56281000 </v>
   <v>       0.25013000       0.70481000       0.56281000 </v>
   <v>       0.24987000       0.29519000       0.81282000 </v>
   <v>       0.49987000       0.70481000       0.81282000 </v>
   <v>       0.50013000       0.29519000       0.56281000 </v>
   <v>       0.75013000       0.70481000       0.56281000 </v>
   <v>       0.74987000       0.29519000       0.81282000 </v>
   <v>       0.99987000       0.70481000       0.81282000 </v>
   <v>       0.25005000       0.32677000       0.06286000 </v>
   <v>       0.00005000       0.67323000       0.06286000 </v>
   <v>       0.49995000       0.32677000       0.31286000 </v>
   <v>       0.24995000       0.67323000       0.31286000 </v>
   <v>       0.75005000       0.32677000       0.06286000 </v>
   <v>       0.50005000       0.67323000       0.06286000 </v>
   <v>       0.99995000       0.32677000       0.31286000 </v>
   <v>       0.74995000       0.67323000       0.31286000 </v>
   <v>       0.25005000       0.32677000       0.56286000 </v>
   <v>       0.00005000       0.67323000       0.56286000 </v>
   <v>       0.49995000       0.32677000       0.81286000 </v>
   <v>       0.24995000       0.67323000       0.81286000 </v>
   <v>       0.75005000       0.32677000       0.56286000 </v>
   <v>       0.50005000       0.67323000       0.56286000 </v>
   <v>       0.99995000       0.32677000       0.81286000 </v>
   <v>       0.74995000       0.67323000       0.81286000 </v>
   <v>       0.49987000       0.07798000       0.06246000 </v>
   <v>       0.24987000       0.92202000       0.06246000 </v>
   <v>       0.25013000       0.07798000       0.31246000 </v>
   <v>       0.00013000       0.92202000       0.31246000 </v>
   <v>       0.99987000       0.07798000       0.06246000 </v>
   <v>       0.74987000       0.92202000       0.06246000 </v>
   <v>       0.75013000       0.07798000       0.31246000 </v>
   <v>       0.50013000       0.92202000       0.31246000 </v>
   <v>       0.49987000       0.07798000       0.56246000 </v>
   <v>       0.24987000       0.92202000       0.56246000 </v>
   <v>       0.25013000       0.07798000       0.81246000 </v>
   <v>       0.00013000       0.92202000       0.81246000 </v>
   <v>       0.99987000       0.07798000       0.56246000 </v>
   <v>       0.74987000       0.92202000       0.56246000 </v>
   <v>       0.75013000       0.07798000       0.81246000 </v>
   <v>       0.50013000       0.92202000       0.81246000 </v>
  </varray>
 </structure>
 <calculation>
  <scstep>
   <time name="dav">   59.72   59.80</time>
   <time name="total">   59.80   59.88</time>
   <energy>
    <i name="alphaZ">   1073.51873187 </i>
    <i name="ewald"> -30883.30824623 </i>
    <i name="hartreedc"> -12706.08194114 </i>
    <i name="XCdc">   1394.97488007 </i>
    <i name="pawpsdc">  36823.70205594 </i>
    <i name="pawaedc"> -36326.52930246 </i>
    <i name="eentropy">      0.00000000 </i>
    <i name="bandstr">   1804.45164463 </i>
    <i name="atom">  44791.06186932 </i>
    <i name="e_fr_energy">   5971.78969200 </i>
    <i name="e_wo_entrp">   5971.78969200 </i>
    <i name="e_0_energy">   5971.78969200 </i>
   </energy>
  </scstep>
  <scstep>
   <time name="dav">   60.13   60.15</time>
   <time name="total">   60.14   60.16</time>
   <energy>
    <i name="e_fr_energy">    803.38026048 </i>
    <i name="e_wo_entrp">    803.38026048 </i>
    <i name="e_0_energy">    803.38026048 </i>
   </energy>
  </scstep>
  <scstep>
   <time name="dav">   68.93   69.02</time>
   <time name="total">   68.94   69.02</time>
   <energy>
    <i name="e_fr_energy">   -241.51663192 </i>
    <i name="e_wo_entrp">   -241.51663192 </i>
    <i name="e_0_energy">   -241.51663192 </i>
   </energy>
  </scstep>
  <scstep>
   <time name="dav">   72.10   72.26</time>
   <time name="total">   72.10   72.26</time>
   <energy>
    <i name="e_fr_energy">   -346.19321542 </i>
    <i name="e_wo_entrp">   -346.19321542 </i>
    <i name="e_0_energy">   -346.19321542 </i>
   </energy>
  </scstep>
  <scstep>
   <time name="dav">   95.10   95.17</time>
   <time name="total">   95.84   95.91</time>
   <energy>
    <i name="e_fr_energy">   -354.94420954 </i>
    <i name="e_wo_entrp">   -354.94420954 </i>
    <i name="e_0_energy">   -354.94420954 </i>
   </energy>
  </scstep>
  <scstep>
   <time name="dav">   84.78   84.93</time>
   <time name="total">   85.59   85.75</time>
   <energy>
    <i name="e_fr_energy">   -296.44110274 </i>
    <i name="e_wo_entrp">   -296.44110274 </i>
    <i name="e_0_energy">   -296.44110274 </i>
   </energy>
  </scstep>
  <scstep>
   <time name="dav">   65.17   65.24</time>
   <time name="total">   65.98   66.05</time>
   <energy>
    <i name="e_fr_energy">   -299.27443548 </i>
    <i name="e_wo_entrp">   -299.27443548 </i>
    <i name="e_0_energy">   -299.27443548 </i>
   </energy>
  </scstep>
  <scstep>
   <time name="dav">   77.32   77.34</time>
   <time name="total">   78.13   78.15</time>
   <energy>
    <i name="e_fr_energy">   -298.04324380 </i>
    <i name="e_wo_entrp">   -298.04324380 </i>
    <i name="e_0_energy">   -298.04324380 </i>
   </energy>
  </scstep>
  <scstep>
   <time name="dav">   74.69   74.78</time>
   <time name="total">   75.51   75.59</time>
   <energy>
    <i name="e_fr_energy">   -297.39741375 </i>
    <i name="e_wo_entrp">   -297.39741375 </i>
    <i name="e_0_energy">   -297.39741375 </i>
   </energy>
  </scstep>
  <scstep>
   <time name="dav">   73.53   73.61</time>
   <time name="total">   74.35   74.43</time>
   <energy>
    <i name="e_fr_energy">   -297.42469194 </i>
    <i name="e_wo_entrp">   -297.42469194 </i>
    <i name="e_0_energy">   -297.42469194 </i>
   </energy>
  </scstep>
  <scstep>
   <time name="dav">   78.63   78.77</time>
   <time name="total">   79.45   79.60</time>
   <energy>
    <i name="e_fr_energy">   -297.43389996 </i>
    <i name="e_wo_entrp">   -297.43389996 </i>
    <i name="e_0_energy">   -297.43389996 </i>
   </energy>
  </scstep>
  <scstep>
   <time name="dav">   89.34   89.50</time>
   <time name="total">   90.16   90.32</time>
   <energy>
    <i name="e_fr_energy">   -297.43731491 </i>
    <i name="e_wo_entrp">   -297.43731491 </i>
    <i name="e_0_energy">   -297.43731491 </i>
   </energy>
  </scstep>
  <scstep>
   <time name="dav">   70.31   70.38</time>
   <time name="total">   71.13   71.20</time>
   <energy>
    <i name="e_fr_energy">   -297.43858121 </i>
    <i name="e_wo_entrp">   -297.43858121 </i>
    <i name="e_0_energy">   -297.43858121 </i>
   </energy>
  </scstep>
  <scstep>
   <time name="dav">   69.43   69.50</time>
   <time name="total">   70.25   70.32</time>
   <energy>
    <i name="e_fr_energy">   -297.43879071 </i>
    <i name="e_wo_entrp">   -297.43879071 </i>
    <i name="e_0_energy">   -297.43879071 </i>
   </energy>
  </scstep>
  <scstep>
   <time name="dav">   83.24   83.41</time>
   <time name="total">   84.04   84.23</time>
   <energy>
    <i name="e_fr_energy">   -297.43882760 </i>
    <i name="e_wo_entrp">   -297.43882760 </i>
    <i name="e_0_energy">   -297.43882760 </i>
   </energy>
  </scstep>
  <scstep>
   <time name="dav">   62.54   62.68</time>
   <time name="total">   63.36   63.50</time>
   <energy>
    <i name="e_fr_energy">   -297.43884318 </i>
    <i name="e_wo_entrp">   -297.43884318 </i>
    <i name="e_0_energy">   -297.43884318 </i>
   </energy>
  </scstep>
  <scstep>
   <time name="dav">   68.09   68.22</time>
   <time name="total">   68.91   69.04</time>
   <energy>
    <i name="e_fr_energy">   -297.43884640 </i>
    <i name="e_wo_entrp">   -297.43884640 </i>
    <i name="e_0_energy">   -297.43884640 </i>
   </energy>
  </scstep>
  <scstep>
   <time name="dav">   56.40   56.42</time>
   <time name="total">   56.47   56.50</time>
   <energy>
    <i name="alphaZ">   1073.51873187 </i>
    <i name="ewald"> -30883.30824623 </i>
    <i name="hartreedc"> -12941.37329234 </i>
    <i name="XCdc">   1418.52788990 </i>
    <i name="pawpsdc">  43845.50076753 </i>
    <i name="pawaedc"> -43322.92988314 </i>
    <i name="eentropy">      0.00000000 </i>
    <i name="bandstr">  -4278.43668384 </i>
    <i name="atom">  44791.06186932 </i>
    <i name="e_fr_energy">   -297.43884693 </i>
    <i name="e_wo_entrp">   -297.43884693 </i>
    <i name="e_0_energy">   -297.43884693 </i>
   </energy>
  </scstep>
  <structure>
   <crystal>
    <varray name="basis" >
     <v>      11.17850000       0.00000000       0.00000000 </v>
     <v>       0.00000000       9.57460000       0.00000000 </v>
     <v>       0.00000000       0.00000000      11.18240000 </v>
    </varray>
    <i name="volume">   1196.84853820 </i>
    <varray name="rec_basis" >
     <v>       0.08945744       0.00000000       0.00000000 </v>
     <v>       0.00000000       0.10444301       0.00000000 </v>
     <v>       0.00000000       0.00000000       0.08942624 </v>
    </varray>
   </crystal>
   <varray name="positions" >
    <v>       0.37539000       0.00017000       0.43687000 </v>
    <v>       0.12461000       0.99984000       0.18687000 </v>
    <v>       0.62539000       0.99984000       0.43687000 </v>
    <v>       0.87461000       0.00017000       0.18687000 </v>
    <v>       0.12539000       0.99984000       0.93687000 </v>
    <v>       0.37539000       0.00017000       0.93687000 </v>
    <v>       0.12461000       0.99984000       0.68687000 </v>
    <v>       0.37461000       0.00017000       0.68687000 </v>
    <v>       0.62539000       0.99984000       0.93687000 </v>
    <v>       0.62461000       0.99984000       0.68687000 </v>
    <v>       0.37461000       0.00017000       0.18687000 </v>
    <v>       0.87539000       0.00017000       0.43687000 </v>
    <v>       0.87539000       0.00017000       0.93687000 </v>
    <v>       0.00013000       0.29519000       0.06281000 </v>
    <v>       0.25013000       0.70481000       0.06281000 </v>
    <v>       0.24987000       0.29519000       0.31282000 </v>
    <v>       0.49987000       0.70481000       0.31282000 </v>
    <v>       0.50013000       0.29519000       0.06281000 </v>
    <v>       0.75013000       0.70481000       0.06281000 </v>
    <v>       0.74987000       0.29519000       0.31282000 </v>
    <v>       0.99987000       0.70481000       0.31282000 </v>
    <v>       0.00013000       0.29519000       0.56281000 </v>
    <v>       0.25013000       0.70481000       0.56281000 </v>
    <v>       0.24987000       0.29519000       0.81282000 </v>
    <v>       0.49987000       0.70481000       0.81282000 </v>
    <v>       0.50013000       0.29519000       0.56281000 </v>
    <v>       0.75013000       0.70481000       0.56281000 </v>
    <v>       0.74987000       0.29519000       0.81282000 </v>
    <v>       0.99987000       0.70481000       0.81282000 </v>
    <v>       0.25005000       0.32677000       0.06286000 </v>
    <v>       0.00005000       0.67323000       0.06286000 </v>
    <v>       0.49995000       0.32677000       0.31286000 </v>
    <v>       0.24995000       0.67323000       0.31286000 </v>
    <v>       0.75005000       0.32677000       0.06286000 </v>
    <v>       0.50005000       0.67323000       0.06286000 </v>
    <v>       0.99995000       0.32677000       0.31286000 </v>
    <v>       0.74995000       0.67323000       0.31286000 </v>
    <v>       0.25005000       0.32677000       0.56286000 </v>
    <v>       0.00005000       0.67323000       0.56286000 </v>
    <v>       0.49995000       0.32677000       0.81286000 </v>
    <v>       0.24995000       0.67323000       0.81286000 </v>
    <v>       0.75005000       0.32677000       0.56286000 </v>
    <v>       0.50005000       0.67323000       0.56286000 </v>
    <v>       0.99995000       0.32677000       0.81286000 </v>
    <v>       0.74995000       0.67323000       0.81286000 </v>
    <v>       0.49987000       0.07798000       0.06246000 </v>
    <v>       0.24987000       0.92202000       0.06246000 </v>
    <v>       0.25013000       0.07798000       0.31246000 </v>
    <v>       0.00013000       0.92202000       0.31246000 </v>
    <v>       0.99987000       0.07798000       0.06246000 </v>
    <v>       0.74987000       0.92202000       0.06246000 </v>
    <v>       0.75013000       0.07798000       0.31246000 </v>
    <v>       0.50013000       0.92202000       0.31246000 </v>
    <v>       0.49987000       0.07798000       0.56246000 </v>
    <v>       0.24987000       0.92202000       0.56246000 </v>
    <v>       0.25013000       0.07798000       0.81246000 </v>
    <v>       0.00013000       0.92202000       0.81246000 </v>
    <v>       0.99987000       0.07798000       0.56246000 </v>
    <v>       0.74987000       0.92202000       0.56246000 </v>
    <v>       0.75013000       0.07798000       0.81246000 </v>
    <v>       0.50013000       0.92202000       0.81246000 </v>
   </varray>
  </structure>
  <varray name="forces" >
   <v>      -0.33494552      -0.06574579       0.34313011 </v>
   <v>      -0.30641688      -0.00203109       0.55474300 </v>
   <v>      -0.24259154      -0.00007620      -0.21373906 </v>
   <v>      -0.34338659      -0.06642811       0.21028906 </v>
   <v>       0.23464808       0.00243320      -0.28492558 </v>
   <v>       0.17170156       0.06474334      -0.33706291 </v>
   <v>      -0.33314255       0.00065574      -0.52933644 </v>
   <v>      -0.15851929      -0.06268321      -0.19464374 </v>
   <v>      -0.24458951      -0.00182843       0.22799544 </v>
   <v>       0.35342273      -0.00104951      -0.02919240 </v>
   <v>       0.81272453       0.11046941       0.32603438 </v>
   <v>       0.73276185       0.10413336       0.86292100 </v>
   <v>      -0.25918998      -0.12201912      -0.81361851 </v>
   <v>       0.02347746       1.06507639       0.07385321 </v>
   <v>      -0.02914953      -1.05585937      -0.10930094 </v>
   <v>      -0.18157857       0.01854455       0.44435349 </v>
   <v>       0.18732775       0.03724142       0.11460513 </v>
   <v>       0.21749818      -0.01491856       0.02472049 </v>
   <v>      -0.23553779      -0.02670186       0.18626485 </v>
   <v>      -0.18203631       0.01467336      -0.04460229 </v>
   <v>       0.19739726       0.00498796       0.28083348 </v>
   <v>       0.10444122      -1.07540838       0.04923543 </v>
   <v>      -0.12865720       1.01798415      -0.10259929 </v>
   <v>       0.03925716       0.02564711      -0.24759071 </v>
   <v>      -0.02846148      -0.01607417      -0.16908877 </v>
   <v>      -0.07583544       0.01475706       0.01211809 </v>
   <v>       0.07171160       0.04535160       0.18138813 </v>
   <v>       0.03935358      -0.01398415      -0.34220780 </v>
   <v>      -0.02547808      -0.00858032      -0.42180281 </v>
   <v>      -0.04302687       0.11808019       0.03656607 </v>
   <v>       0.04137248      -0.12450724      -0.04380996 </v>
   <v>      -0.06179980       0.14153667      -0.10091949 </v>
   <v>       0.05718693      -0.12369166      -0.32150992 </v>
   <v>       0.14961753       0.10025361      -0.05718415 </v>
   <v>      -0.15064886      -0.09185557       0.01997147 </v>
   <v>      -0.05186495       0.14590005      -0.24414478 </v>
   <v>       0.05865811      -0.15115746      -0.02524964 </v>
   <v>       0.12797796       0.19945682       0.02509395 </v>
   <v>      -0.13573324      -0.14785956      -0.04491121 </v>
   <v>      -0.00466335       0.19021750       0.06973547 </v>
   <v>       0.00199196      -0.19166702       0.26164948 </v>
   <v>      -0.08936104       0.18188904      -0.06213833 </v>
   <v>       0.09789342      -0.23279683       0.01020927 </v>
   <v>      -0.02320120       0.11553490       0.32934467 </v>
   <v>       0.02633261      -0.13860939       0.14135340 </v>
   <v>      -1.18141812      -0.01769467      -0.15091239 </v>
   <v>       0.38936097       0.82541109       0.44507248 </v>
   <v>       1.03202867      -0.08270857      -1.27988305 </v>
   <v>      -1.06274901      -0.04345331      -0.37367554 </v>
   <v>      -0.38220488      -0.82882541      -0.47026777 </v>
   <v>       1.17410357       0.11456179      -1.06562303 </v>
   <v>       1.05415629      -0.02354007       0.96683669 </v>
   <v>      -1.12016291      -0.05529963       0.04469272 </v>
   <v>       0.07093383       0.03361759       0.00321223 </v>
   <v>       0.67047919      -0.83879481       0.61040041 </v>
   <v>      -0.00383268      -0.02630078       0.23763738 </v>
   <v>       0.13205509       0.00286041       1.31443964 </v>
   <v>      -0.51638069       0.99641890      -0.48247434 </v>
   <v>      -0.19457266      -0.10639584      -1.10147961 </v>
   <v>      -0.12655247       0.04695688       1.16964254 </v>
   <v>      -0.01218258       0.01915200       0.08555129 </v>
  </varray>
  <varray name="stress" >
   <v>      -7.78395218      -0.11299392      -0.30586579 </v>
   <v>      -0.11299364     -14.23388484       0.05796622 </v>
   <v>      -0.30586582       0.05796610      -8.74461073 </v>
  </varray>
  <energy>
   <i name="e_fr_energy">   -312.11331567 </i>
   <i name="e_wo_entrp">   -312.11331567 </i>
   <i name="e_0_energy">      0.00000000 </i>
  </energy>
  <time name="totalsc"> 1427.70 1429.56</time>
  <eigenvalues>
   <array>
    <dimension dim="1">band</dimension>
    <dimension dim="2">kpoint</dimension>
    <dimension dim="3">spin</dimension>
    <field>eigene</field>
    <field>occ</field>
    <set>
     <set comment="spin 1">
      <set comment="kpoint 1">
       <r>  -40.2245    1.0000 </r>
       <r>  -40.1904    1.0000 </r>
       <r>  -40.0564    1.0000 </r>
       <r>  -40.0495    1.0000 </r>
       <r>  -39.8477    1.0000 </r>
       <r>  -39.7524    1.0000 </r>
       <r>  -39.7134    1.0000 </r>
       <r>  -39.6043    1.0000 </r>
       <r>  -39.5936    1.0000 </r>
       <r>  -39.3692    1.0000 </r>
       <r>  -18.9228    1.0000 </r>
       <r>  -18.9209    1.0000 </r>
       <r>  -18.8530    1.0000 </r>
       <r>  -18.8512    1.0000 </r>
       <r>  -18.8460    1.0000 </r>
       <r>  -18.8442    1.0000 </r>
       <r>  -18.7490    1.0000 </r>
       <r>  -18.7470    1.0000 </r>
       <r>  -18.7364    1.0000 </r>
       <r>  -18.7343    1.0000 </r>
       <r>  -18.7170    1.0000 </r>
       <r>  -18.7107    1.0000 </r>
       <r>  -18.7058    1.0000 </r>
       <r>  -18.7033    1.0000 </r>
       <r>  -18.7008    1.0000 </r>
       <r>  -18.6942    1.0000 </r>
       <r>  -18.6501    1.0000 </r>
       <r>  -18.6472    1.0000 </r>
       <r>  -18.6450    1.0000 </r>
       <r>  -18.6433    1.0000 </r>
       <r>  -18.6411    1.0000 </r>
       <r>  -18.6386    1.0000 </r>
       <r>  -18.6385    1.0000 </r>
       <r>  -18.6383    1.0000 </r>
       <r>  -18.6371    1.0000 </r>
       <r>  -18.6366    1.0000 </r>
       <r>  -18.6349    1.0000 </r>
       <r>  -18.6338    1.0000 </r>
       <r>  -18.6334    1.0000 </r>
       <r>  -18.6322    1.0000 </r>
       <r>  -18.6315    1.0000 </r>
       <r>  -18.6295    1.0000 </r>
       <r>  -18.6290    1.0000 </r>
       <r>  -18.6276    1.0000 </r>
       <r>  -18.6250    1.0000 </r>
       <r>  -18.6249    1.0000 </r>
       <r>  -18.6209    1.0000 </r>
       <r>  -18.6198    1.0000 </r>
       <r>  -18.6179    1.0000 </r>
       <r>  -18.6152    1.0000 </r>
       <r>  -18.5597    1.0000 </r>
       <r>  -18.5588    1.0000 </r>
       <r>  -18.5583    1.0000 </r>
       <r>  -18.5531    1.0000 </r>
       <r>  -18.5482    1.0000 </r>
       <r>  -18.5463    1.0000 </r>
       <r>  -18.5458    1.0000 </r>
       <r>  -18.5373    1.0000 </r>
       <r>  -18.5342    1.0000 </r>
       <r>  -18.5332    1.0000 </r>
       <r>  -18.4923    1.0000 </r>
       <r>  -18.4909    1.0000 </r>
       <r>  -18.4879    1.0000 </r>
       <r>  -18.4864    1.0000 </r>
       <r>  -18.4836    1.0000 </r>
       <r>  -18.4816    1.0000 </r>
       <r>  -18.4807    1.0000 </r>
       <r>  -18.4791    1.0000 </r>
       <r>  -18.4763    1.0000 </r>
       <r>  -18.4759    1.0000 </r>
       <r>  -18.4755    1.0000 </r>
       <r>  -18.4729    1.0000 </r>
       <r>  -18.4721    1.0000 </r>
       <r>  -18.4715    1.0000 </r>
       <r>  -18.4665    1.0000 </r>
       <r>  -18.4628    1.0000 </r>
       <r>  -18.4008    1.0000 </r>
       <r>  -18.3978    1.0000 </r>
       <r>  -18.3902    1.0000 </r>
       <r>  -18.3861    1.0000 </r>
       <r>  -18.3849    1.0000 </r>
       <r>  -18.3828    1.0000 </r>
       <r>  -18.3771    1.0000 </r>
       <r>  -18.3722    1.0000 </r>
       <r>  -18.2983    1.0000 </r>
       <r>  -18.2946    1.0000 </r>
       <r>  -18.1854    1.0000 </r>
       <r>  -18.1831    1.0000 </r>
       <r>  -18.1696    1.0000 </r>
       <r>  -18.1587    1.0000 </r>
       <r>  -13.5380    1.0000 </r>
       <r>  -13.4680    1.0000 </r>
       <r>  -12.9066    1.0000 </r>
       <r>  -12.8246    1.0000 </r>
       <r>  -12.7865    1.0000 </r>
       <r>  -12.7626    1.0000 </r>
       <r>  -12.7449    1.0000 </r>
       <r>  -12.6928    1.0000 </r>
       <r>  -12.6812    1.0000 </r>
       <r>  -12.6748    1.0000 </r>
       <r>  -12.6494    1.0000 </r>
       <r>  -12.6166    1.0000 </r>
       <r>  -12.5788    1.0000 </r>
       <r>  -12.5312    1.0000 </r>
       <r>  -11.9683    1.0000 </r>
       <r>  -11.9133    1.0000 </r>
       <r>   -9.3201    1.0000 </r>
       <r>   -9.0254    1.0000 </r>
       <r>   -8.5200    1.0000 </r>
       <r>   -8.4982    1.0000 </r>
       <r>   -8.4792    1.0000 </r>
       <r>   -8.4355    1.0000 </r>
       <r>   -8.2981    1.0000 </r>
       <r>   -8.2772    1.0000 </r>
       <r>   -8.2525    1.0000 </r>
       <r>   -8.2115    1.0000 </r>
       <r>   -8.0213    1.0000 </r>
       <r>   -8.0190    1.0000 </r>
       <r>   -7.9848    1.0000 </r>
       <r>   -7.9838    1.0000 </r>
       <r>   -7.3489    1.0000 </r>
       <r>   -7.3476    1.0000 </r>
       <r>   -6.3626    1.0000 </r>
       <r>   -6.3581    1.0000 </r>
       <r>   -6.3415    1.0000 </r>
       <r>   -6.3342    1.0000 </r>
       <r>   -5.5215    1.0000 </r>
       <r>   -5.4871    1.0000 </r>
       <r>   -5.3545    1.0000 </r>
       <r>   -5.3340    1.0000 </r>
       <r>   -5.3287    1.0000 </r>
       <r>   -5.2463    1.0000 </r>
       <r>   -5.1978    1.0000 </r>
       <r>   -5.1638    1.0000 </r>
       <r>   -5.1181    1.0000 </r>
       <r>   -5.0507    1.0000 </r>
       <r>   -3.7999    1.0000 </r>
       <r>   -3.6474    1.0000 </r>
       <r>   -1.3842    1.0000 </r>
       <r>   -1.3518    1.0000 </r>
       <r>   -1.0579    1.0000 </r>
       <r>   -1.0312    1.0000 </r>
       <r>   -0.5242    1.0000 </r>
       <r>   -0.4938    1.0000 </r>
       <r>   -0.4722    1.0000 </r>
       <r>   -0.4477    1.0000 </r>
       <r>   -0.1652    1.0000 </r>
       <r>   -0.1633    1.0000 </r>
       <r>   -0.1483    1.0000 </r>
       <r>   -0.1247    1.0000 </r>
       <r>    0.0861    1.0000 </r>
       <r>    0.1573    1.0000 </r>
       <r>    0.3653    1.0000 </r>
       <r>    0.4302    1.0000 </r>
       <r>    0.5630    1.0000 </r>
       <r>    0.5849    1.0000 </r>
       <r>    0.6008    1.0000 </r>
       <r>    0.6800    1.0000 </r>
       <r>    0.7029    1.0000 </r>
       <r>    0.7071    1.0000 </r>
       <r>    0.7451    1.0000 </r>
       <r>    0.7684    1.0000 </r>
       <r>    0.8465    1.0000 </r>
       <r>    0.8884    1.0000 </r>
       <r>    0.9540    1.0000 </r>
       <r>    0.9726    1.0000 </r>
       <r>    0.9903    1.0000 </r>
       <r>    1.0226    1.0000 </r>
       <r>    1.0679    1.0000 </r>
       <r>    1.1226    1.0000 </r>
       <r>    1.1360    1.0000 </r>
       <r>    1.1846    1.0000 </r>
       <r>    1.2507    1.0000 </r>
       <r>    1.2915    1.0000 </r>
       <r>    1.3294    1.0000 </r>
       <r>    1.3616    1.0000 </r>
       <r>    1.4343    1.0000 </r>
       <r>    1.5060    1.0000 </r>
       <r>    1.5211    1.0000 </r>
       <r>    1.5600    1.0000 </r>
       <r>    1.5987    1.0000 </r>
       <r>    1.6114    1.0000 </r>
       <r>    1.7026    1.0000 </r>
       <r>    1.7376    1.0000 </r>
       <r>    1.8022    1.0000 </r>
       <r>    1.8371    1.0000 </r>
       <r>    1.8538    1.0000 </r>
       <r>    1.8722    1.0000 </r>
       <r>    1.8932    1.0000 </r>
       <r>    2.0066    1.0000 </r>
       <r>    2.1163    1.0000 </r>
       <r>    2.1509    1.0000 </r>
       <r>    2.1780    1.0000 </r>
       <r>    2.2751    1.0000 </r>
       <r>    2.3171    1.0000 </r>
       <r>    2.3638    1.0000 </r>
       <r>    2.5108    1.0000 </r>
       <r>    2.5805    1.0000 </r>
       <r>    2.5853    1.0000 </r>
       <r>    2.5865    1.0000 </r>
       <r>    2.5969    1.0000 </r>
       <r>    2.6019    1.0000 </r>
       <r>    2.6251    1.0000 </r>
       <r>    2.6663    1.0000 </r>
       <r>    2.6882    1.0000 </r>
       <r>    2.6909    1.0000 </r>
       <r>    2.7419    1.0000 </r>
       <r>    2.7548    1.0000 </r>
       <r>    2.8074    1.0000 </r>
       <r>    2.8305    1.0000 </r>
       <r>    2.8517    1.0000 </r>
       <r>    2.8962    1.0000 </r>
       <r>    2.9199    1.0000 </r>
       <r>    2.9464    1.0000 </r>
       <r>    2.9578    1.0000 </r>
       <r>    2.9829    1.0000 </r>
       <r>    3.0534    1.0000 </r>
       <r>    3.0723    1.0000 </r>
       <r>    3.1105    1.0000 </r>
       <r>    3.1440    1.0000 </r>
       <r>    3.1665    1.0000 </r>
       <r>    3.1757    1.0000 </r>
       <r>    3.1826    1.0000 </r>
       <r>    3.2409    1.0000 </r>
       <r>    3.2921    1.0000 </r>
       <r>    3.3417    1.0000 </r>
       <r>    3.3933    1.0000 </r>
       <r>    3.4510    1.0000 </r>
       <r>    3.4752    1.0000 </r>
       <r>    3.7155    1.0000 </r>
       <r>    4.1968    1.0000 </r>
       <r>    4.2052    1.0000 </r>
       <r>    4.2291    1.0000 </r>
       <r>    4.2320    1.0000 </r>
       <r>    5.0965    0.0000 </r>
       <r>    5.1017    0.0000 </r>
       <r>    5.1359    0.0000 </r>
       <r>    5.1377    0.0000 </r>
       <r>    5.7673    0.0000 </r>
       <r>    5.7745    0.0000 </r>
       <r>    5.7998    0.0000 </r>
       <r>    5.8066    0.0000 </r>
       <r>    6.1071    0.0000 </r>
       <r>    6.1234    0.0000 </r>
       <r>    6.1411    0.0000 </r>
       <r>    6.1570    0.0000 </r>
       <r>    6.2433    0.0000 </r>
       <r>    6.2499    0.0000 </r>
       <r>    6.2709    0.0000 </r>
       <r>    6.2828    0.0000 </r>
       <r>    7.1476    0.0000 </r>
       <r>    7.2205    0.0000 </r>
       <r>    7.2413    0.0000 </r>
       <r>    7.3026    0.0000 </r>
       <r>    7.8150    0.0000 </r>
       <r>    7.9053    0.0000 </r>
       <r>    7.9304    0.0000 </r>
       <r>    7.9502    0.0000 </r>
       <r>    8.0085    0.0000 </r>
       <r>    8.0684    0.0000 </r>
       <r>    8.0957    0.0000 </r>
       <r>    8.1971    0.0000 </r>
       <r>    8.4522    0.0000 </r>
       <r>    8.5430    0.0000 </r>
       <r>    8.6797    0.0000 </r>
       <r>    8.7795    0.0000 </r>
       <r>    8.7934    0.0000 </r>
       <r>    8.9360    0.0000 </r>
       <r>    8.9819    0.0000 </r>
       <r>    8.9821    0.0000 </r>
       <r>    9.0244    0.0000 </r>
       <r>    9.0357    0.0000 </r>
       <r>    9.0722    0.0000 </r>
       <r>    9.1370    0.0000 </r>
       <r>    9.1497    0.0000 </r>
       <r>    9.1603    0.0000 </r>
       <r>    9.2447    0.0000 </r>
       <r>    9.2530    0.0000 </r>
       <r>    9.4679    0.0000 </r>
       <r>    9.6085    0.0000 </r>
      </set>
      <set comment="kpoint 2">
       <r>  -40.2245    1.0000 </r>
       <r>  -40.1903    1.0000 </r>
       <r>  -40.0564    1.0000 </r>
       <r>  -40.0495    1.0000 </r>
       <r>  -39.8477    1.0000 </r>
       <r>  -39.7524    1.0000 </r>
       <r>  -39.7134    1.0000 </r>
       <r>  -39.6043    1.0000 </r>
       <r>  -39.5936    1.0000 </r>
       <r>  -39.3692    1.0000 </r>
       <r>  -18.9228    1.0000 </r>
       <r>  -18.9209    1.0000 </r>
       <r>  -18.8529    1.0000 </r>
       <r>  -18.8511    1.0000 </r>
       <r>  -18.8460    1.0000 </r>
       <r>  -18.8442    1.0000 </r>
       <r>  -18.7490    1.0000 </r>
       <r>  -18.7470    1.0000 </r>
       <r>  -18.7364    1.0000 </r>
       <r>  -18.7343    1.0000 </r>
       <r>  -18.7171    1.0000 </r>
       <r>  -18.7108    1.0000 </r>
       <r>  -18.7058    1.0000 </r>
       <r>  -18.7033    1.0000 </r>
       <r>  -18.7008    1.0000 </r>
       <r>  -18.6942    1.0000 </r>
       <r>  -18.6497    1.0000 </r>
       <r>  -18.6469    1.0000 </r>
       <r>  -18.6451    1.0000 </r>
       <r>  -18.6423    1.0000 </r>
       <r>  -18.6411    1.0000 </r>
       <r>  -18.6400    1.0000 </r>
       <r>  -18.6383    1.0000 </r>
       <r>  -18.6378    1.0000 </r>
       <r>  -18.6375    1.0000 </r>
       <r>  -18.6365    1.0000 </r>
       <r>  -18.6351    1.0000 </r>
       <r>  -18.6340    1.0000 </r>
       <r>  -18.6337    1.0000 </r>
       <r>  -18.6330    1.0000 </r>
       <r>  -18.6322    1.0000 </r>
       <r>  -18.6297    1.0000 </r>
       <r>  -18.6289    1.0000 </r>
       <r>  -18.6274    1.0000 </r>
       <r>  -18.6247    1.0000 </r>
       <r>  -18.6246    1.0000 </r>
       <r>  -18.6208    1.0000 </r>
       <r>  -18.6198    1.0000 </r>
       <r>  -18.6176    1.0000 </r>
       <r>  -18.6151    1.0000 </r>
       <r>  -18.5597    1.0000 </r>
       <r>  -18.5588    1.0000 </r>
       <r>  -18.5583    1.0000 </r>
       <r>  -18.5531    1.0000 </r>
       <r>  -18.5482    1.0000 </r>
       <r>  -18.5464    1.0000 </r>
       <r>  -18.5458    1.0000 </r>
       <r>  -18.5373    1.0000 </r>
       <r>  -18.5342    1.0000 </r>
       <r>  -18.5332    1.0000 </r>
       <r>  -18.4923    1.0000 </r>
       <r>  -18.4909    1.0000 </r>
       <r>  -18.4879    1.0000 </r>
       <r>  -18.4864    1.0000 </r>
       <r>  -18.4836    1.0000 </r>
       <r>  -18.4816    1.0000 </r>
       <r>  -18.4807    1.0000 </r>
       <r>  -18.4791    1.0000 </r>
       <r>  -18.4763    1.0000 </r>
       <r>  -18.4759    1.0000 </r>
       <r>  -18.4755    1.0000 </r>
       <r>  -18.4729    1.0000 </r>
       <r>  -18.4721    1.0000 </r>
       <r>  -18.4715    1.0000 </r>
       <r>  -18.4665    1.0000 </r>
       <r>  -18.4628    1.0000 </r>
       <r>  -18.4008    1.0000 </r>
       <r>  -18.3978    1.0000 </r>
       <r>  -18.3902    1.0000 </r>
       <r>  -18.3861    1.0000 </r>
       <r>  -18.3849    1.0000 </r>
       <r>  -18.3828    1.0000 </r>
       <r>  -18.3772    1.0000 </r>
       <r>  -18.3722    1.0000 </r>
       <r>  -18.2983    1.0000 </r>
       <r>  -18.2946    1.0000 </r>
       <r>  -18.1854    1.0000 </r>
       <r>  -18.1831    1.0000 </r>
       <r>  -18.1696    1.0000 </r>
       <r>  -18.1587    1.0000 </r>
       <r>  -13.5367    1.0000 </r>
       <r>  -13.4693    1.0000 </r>
       <r>  -12.9023    1.0000 </r>
       <r>  -12.8262    1.0000 </r>
       <r>  -12.7905    1.0000 </r>
       <r>  -12.7571    1.0000 </r>
       <r>  -12.7470    1.0000 </r>
       <r>  -12.7175    1.0000 </r>
       <r>  -12.6675    1.0000 </r>
       <r>  -12.6597    1.0000 </r>
       <r>  -12.6512    1.0000 </r>
       <r>  -12.6201    1.0000 </r>
       <r>  -12.5786    1.0000 </r>
       <r>  -12.5322    1.0000 </r>
       <r>  -11.9690    1.0000 </r>
       <r>  -11.9127    1.0000 </r>
       <r>   -9.1152    1.0000 </r>
       <r>   -9.0987    1.0000 </r>
       <r>   -8.8410    1.0000 </r>
       <r>   -8.8224    1.0000 </r>
       <r>   -8.3184    1.0000 </r>
       <r>   -8.3136    1.0000 </r>
       <r>   -8.3065    1.0000 </r>
       <r>   -8.2993    1.0000 </r>
       <r>   -8.1300    1.0000 </r>
       <r>   -8.1259    1.0000 </r>
       <r>   -8.1205    1.0000 </r>
       <r>   -8.1139    1.0000 </r>
       <r>   -7.6822    1.0000 </r>
       <r>   -7.6803    1.0000 </r>
       <r>   -7.5717    1.0000 </r>
       <r>   -7.5707    1.0000 </r>
       <r>   -5.9726    1.0000 </r>
       <r>   -5.9320    1.0000 </r>
       <r>   -5.8861    1.0000 </r>
       <r>   -5.8813    1.0000 </r>
       <r>   -5.8435    1.0000 </r>
       <r>   -5.7673    1.0000 </r>
       <r>   -5.7366    1.0000 </r>
       <r>   -5.7305    1.0000 </r>
       <r>   -5.6307    1.0000 </r>
       <r>   -5.5813    1.0000 </r>
       <r>   -5.4957    1.0000 </r>
       <r>   -5.4797    1.0000 </r>
       <r>   -4.4222    1.0000 </r>
       <r>   -4.4090    1.0000 </r>
       <r>   -4.2554    1.0000 </r>
       <r>   -4.2401    1.0000 </r>
       <r>   -1.1334    1.0000 </r>
       <r>   -1.1135    1.0000 </r>
       <r>   -0.8035    1.0000 </r>
       <r>   -0.7908    1.0000 </r>
       <r>   -0.3880    1.0000 </r>
       <r>   -0.3531    1.0000 </r>
       <r>   -0.0106    1.0000 </r>
       <r>    0.0573    1.0000 </r>
       <r>    0.0797    1.0000 </r>
       <r>    0.1202    1.0000 </r>
       <r>    0.1569    1.0000 </r>
       <r>    0.2421    1.0000 </r>
       <r>    0.2454    1.0000 </r>
       <r>    0.2989    1.0000 </r>
       <r>    0.3315    1.0000 </r>
       <r>    0.3397    1.0000 </r>
       <r>    0.5477    1.0000 </r>
       <r>    0.5654    1.0000 </r>
       <r>    0.5751    1.0000 </r>
       <r>    0.6046    1.0000 </r>
       <r>    0.6241    1.0000 </r>
       <r>    0.6417    1.0000 </r>
       <r>    0.7019    1.0000 </r>
       <r>    0.7193    1.0000 </r>
       <r>    0.7295    1.0000 </r>
       <r>    0.8078    1.0000 </r>
       <r>    0.8960    1.0000 </r>
       <r>    0.9578    1.0000 </r>
       <r>    0.9755    1.0000 </r>
       <r>    0.9994    1.0000 </r>
       <r>    1.0728    1.0000 </r>
       <r>    1.1314    1.0000 </r>
       <r>    1.1835    1.0000 </r>
       <r>    1.2296    1.0000 </r>
       <r>    1.2718    1.0000 </r>
       <r>    1.2923    1.0000 </r>
       <r>    1.3522    1.0000 </r>
       <r>    1.3648    1.0000 </r>
       <r>    1.3879    1.0000 </r>
       <r>    1.4320    1.0000 </r>
       <r>    1.4733    1.0000 </r>
       <r>    1.5012    1.0000 </r>
       <r>    1.5268    1.0000 </r>
       <r>    1.5606    1.0000 </r>
       <r>    1.6589    1.0000 </r>
       <r>    1.6864    1.0000 </r>
       <r>    1.7396    1.0000 </r>
       <r>    1.7684    1.0000 </r>
       <r>    1.8479    1.0000 </r>
       <r>    1.8811    1.0000 </r>
       <r>    1.9230    1.0000 </r>
       <r>    1.9569    1.0000 </r>
       <r>    1.9883    1.0000 </r>
       <r>    2.0015    1.0000 </r>
       <r>    2.0374    1.0000 </r>
       <r>    2.1000    1.0000 </r>
       <r>    2.1186    1.0000 </r>
       <r>    2.1669    1.0000 </r>
       <r>    2.1785    1.0000 </r>
       <r>    2.2741    1.0000 </r>
       <r>    2.3067    1.0000 </r>
       <r>    2.3454    1.0000 </r>
       <r>    2.4160    1.0000 </r>
       <r>    2.4210    1.0000 </r>
       <r>    2.4919    1.0000 </r>
       <r>    2.5475    1.0000 </r>
       <r>    2.6085    1.0000 </r>
       <r>    2.6227    1.0000 </r>
       <r>    2.6470    1.0000 </r>
       <r>    2.6610    1.0000 </r>
       <r>    2.7143    1.0000 </r>
       <r>    2.7357    1.0000 </r>
       <r>    2.7579    1.0000 </r>
       <r>    2.7859    1.0000 </r>
       <r>    2.8184    1.0000 </r>
       <r>    2.8760    1.0000 </r>
       <r>    2.8858    1.0000 </r>
       <r>    2.9092    1.0000 </r>
       <r>    2.9345    1.0000 </r>
       <r>    2.9519    1.0000 </r>
       <r>    3.0429    1.0000 </r>
       <r>    3.0765    1.0000 </r>
       <r>    3.0946    1.0000 </r>
       <r>    3.1283    1.0000 </r>
       <r>    3.1391    1.0000 </r>
       <r>    3.1715    1.0000 </r>
       <r>    3.2726    1.0000 </r>
       <r>    3.3925    1.0000 </r>
       <r>    3.4949    1.0000 </r>
       <r>    3.5191    1.0000 </r>
       <r>    3.5403    1.0000 </r>
       <r>    3.5583    1.0000 </r>
       <r>    3.5744    1.0000 </r>
       <r>    3.5833    1.0000 </r>
       <r>    3.6316    1.0000 </r>
       <r>    3.8741    1.0000 </r>
       <r>    5.6824    0.0000 </r>
       <r>    5.6906    0.0000 </r>
       <r>    5.7013    0.0000 </r>
       <r>    5.7069    0.0000 </r>
       <r>    5.7623    0.0000 </r>
       <r>    5.7696    0.0000 </r>
       <r>    5.8010    0.0000 </r>
       <r>    5.8058    0.0000 </r>
       <r>    7.2381    0.0000 </r>
       <r>    7.2546    0.0000 </r>
       <r>    7.2878    0.0000 </r>
       <r>    7.3768    0.0000 </r>
       <r>    7.3914    0.0000 </r>
       <r>    7.4477    0.0000 </r>
       <r>    7.4525    0.0000 </r>
       <r>    7.4624    0.0000 </r>
       <r>    7.4817    0.0000 </r>
       <r>    7.4837    0.0000 </r>
       <r>    7.5179    0.0000 </r>
       <r>    7.5326    0.0000 </r>
       <r>    7.8489    0.0000 </r>
       <r>    7.8510    0.0000 </r>
       <r>    7.8730    0.0000 </r>
       <r>    7.8749    0.0000 </r>
       <r>    7.8931    0.0000 </r>
       <r>    7.9177    0.0000 </r>
       <r>    7.9578    0.0000 </r>
       <r>    7.9676    0.0000 </r>
       <r>    8.0061    0.0000 </r>
       <r>    8.0489    0.0000 </r>
       <r>    8.0534    0.0000 </r>
       <r>    8.1287    0.0000 </r>
       <r>    8.3220    0.0000 </r>
       <r>    8.3811    0.0000 </r>
       <r>    8.4077    0.0000 </r>
       <r>    8.5592    0.0000 </r>
       <r>    8.6770    0.0000 </r>
       <r>    8.6959    0.0000 </r>
       <r>    8.7692    0.0000 </r>
       <r>    8.7759    0.0000 </r>
       <r>    8.8346    0.0000 </r>
       <r>    8.8419    0.0000 </r>
       <r>    8.9359    0.0000 </r>
       <r>    8.9416    0.0000 </r>
       <r>    9.2005    0.0000 </r>
       <r>    9.2200    0.0000 </r>
      </set>
      <set comment="kpoint 3">
       <r>  -40.2245    1.0000 </r>
       <r>  -40.1903    1.0000 </r>
       <r>  -40.0564    1.0000 </r>
       <r>  -40.0495    1.0000 </r>
       <r>  -39.8477    1.0000 </r>
       <r>  -39.7524    1.0000 </r>
       <r>  -39.7134    1.0000 </r>
       <r>  -39.6043    1.0000 </r>
       <r>  -39.5936    1.0000 </r>
       <r>  -39.3692    1.0000 </r>
       <r>  -18.9230    1.0000 </r>
       <r>  -18.9208    1.0000 </r>
       <r>  -18.8530    1.0000 </r>
       <r>  -18.8512    1.0000 </r>
       <r>  -18.8460    1.0000 </r>
       <r>  -18.8442    1.0000 </r>
       <r>  -18.7490    1.0000 </r>
       <r>  -18.7470    1.0000 </r>
       <r>  -18.7364    1.0000 </r>
       <r>  -18.7343    1.0000 </r>
       <r>  -18.7170    1.0000 </r>
       <r>  -18.7107    1.0000 </r>
       <r>  -18.7058    1.0000 </r>
       <r>  -18.7033    1.0000 </r>
       <r>  -18.7008    1.0000 </r>
       <r>  -18.6943    1.0000 </r>
       <r>  -18.6501    1.0000 </r>
       <r>  -18.6472    1.0000 </r>
       <r>  -18.6450    1.0000 </r>
       <r>  -18.6433    1.0000 </r>
       <r>  -18.6411    1.0000 </r>
       <r>  -18.6386    1.0000 </r>
       <r>  -18.6386    1.0000 </r>
       <r>  -18.6383    1.0000 </r>
       <r>  -18.6372    1.0000 </r>
       <r>  -18.6366    1.0000 </r>
       <r>  -18.6349    1.0000 </r>
       <r>  -18.6338    1.0000 </r>
       <r>  -18.6335    1.0000 </r>
       <r>  -18.6322    1.0000 </r>
       <r>  -18.6315    1.0000 </r>
       <r>  -18.6295    1.0000 </r>
       <r>  -18.6290    1.0000 </r>
       <r>  -18.6276    1.0000 </r>
       <r>  -18.6250    1.0000 </r>
       <r>  -18.6249    1.0000 </r>
       <r>  -18.6209    1.0000 </r>
       <r>  -18.6198    1.0000 </r>
       <r>  -18.6178    1.0000 </r>
       <r>  -18.6152    1.0000 </r>
       <r>  -18.5597    1.0000 </r>
       <r>  -18.5589    1.0000 </r>
       <r>  -18.5583    1.0000 </r>
       <r>  -18.5531    1.0000 </r>
       <r>  -18.5482    1.0000 </r>
       <r>  -18.5463    1.0000 </r>
       <r>  -18.5458    1.0000 </r>
       <r>  -18.5373    1.0000 </r>
       <r>  -18.5344    1.0000 </r>
       <r>  -18.5330    1.0000 </r>
       <r>  -18.4922    1.0000 </r>
       <r>  -18.4909    1.0000 </r>
       <r>  -18.4879    1.0000 </r>
       <r>  -18.4864    1.0000 </r>
       <r>  -18.4836    1.0000 </r>
       <r>  -18.4815    1.0000 </r>
       <r>  -18.4807    1.0000 </r>
       <r>  -18.4791    1.0000 </r>
       <r>  -18.4763    1.0000 </r>
       <r>  -18.4759    1.0000 </r>
       <r>  -18.4755    1.0000 </r>
       <r>  -18.4729    1.0000 </r>
       <r>  -18.4721    1.0000 </r>
       <r>  -18.4715    1.0000 </r>
       <r>  -18.4665    1.0000 </r>
       <r>  -18.4628    1.0000 </r>
       <r>  -18.4008    1.0000 </r>
       <r>  -18.3978    1.0000 </r>
       <r>  -18.3902    1.0000 </r>
       <r>  -18.3861    1.0000 </r>
       <r>  -18.3849    1.0000 </r>
       <r>  -18.3828    1.0000 </r>
       <r>  -18.3772    1.0000 </r>
       <r>  -18.3722    1.0000 </r>
       <r>  -18.2983    1.0000 </r>
       <r>  -18.2946    1.0000 </r>
       <r>  -18.1854    1.0000 </r>
       <r>  -18.1830    1.0000 </r>
       <r>  -18.1696    1.0000 </r>
       <r>  -18.1587    1.0000 </r>
       <r>  -13.5377    1.0000 </r>
       <r>  -13.4681    1.0000 </r>
       <r>  -12.9050    1.0000 </r>
       <r>  -12.8246    1.0000 </r>
       <r>  -12.7862    1.0000 </r>
       <r>  -12.7620    1.0000 </r>
       <r>  -12.7450    1.0000 </r>
       <r>  -12.6929    1.0000 </r>
       <r>  -12.6813    1.0000 </r>
       <r>  -12.6748    1.0000 </r>
       <r>  -12.6509    1.0000 </r>
       <r>  -12.6175    1.0000 </r>
       <r>  -12.5788    1.0000 </r>
       <r>  -12.5321    1.0000 </r>
       <r>  -11.9675    1.0000 </r>
       <r>  -11.9148    1.0000 </r>
       <r>   -9.3103    1.0000 </r>
       <r>   -9.0323    1.0000 </r>
       <r>   -8.5390    1.0000 </r>
       <r>   -8.5152    1.0000 </r>
       <r>   -8.4971    1.0000 </r>
       <r>   -8.4529    1.0000 </r>
       <r>   -8.2769    1.0000 </r>
       <r>   -8.2584    1.0000 </r>
       <r>   -8.2320    1.0000 </r>
       <r>   -8.1921    1.0000 </r>
       <r>   -8.0253    1.0000 </r>
       <r>   -8.0229    1.0000 </r>
       <r>   -7.9875    1.0000 </r>
       <r>   -7.9869    1.0000 </r>
       <r>   -7.3516    1.0000 </r>
       <r>   -7.3505    1.0000 </r>
       <r>   -6.3553    1.0000 </r>
       <r>   -6.3462    1.0000 </r>
       <r>   -6.3328    1.0000 </r>
       <r>   -6.3233    1.0000 </r>
       <r>   -5.5369    1.0000 </r>
       <r>   -5.4718    1.0000 </r>
       <r>   -5.3885    1.0000 </r>
       <r>   -5.3819    1.0000 </r>
       <r>   -5.3746    1.0000 </r>
       <r>   -5.2635    1.0000 </r>
       <r>   -5.1465    1.0000 </r>
       <r>   -5.1068    1.0000 </r>
       <r>   -5.0724    1.0000 </r>
       <r>   -5.0040    1.0000 </r>
       <r>   -3.8733    1.0000 </r>
       <r>   -3.5623    1.0000 </r>
       <r>   -1.3193    1.0000 </r>
       <r>   -1.2950    1.0000 </r>
       <r>   -1.1453    1.0000 </r>
       <r>   -1.1085    1.0000 </r>
       <r>   -0.4092    1.0000 </r>
       <r>   -0.4071    1.0000 </r>
       <r>   -0.3940    1.0000 </r>
       <r>   -0.3793    1.0000 </r>
       <r>   -0.3283    1.0000 </r>
       <r>   -0.2925    1.0000 </r>
       <r>   -0.2575    1.0000 </r>
       <r>   -0.2401    1.0000 </r>
       <r>   -0.1478    1.0000 </r>
       <r>    0.0721    1.0000 </r>
       <r>    0.1165    1.0000 </r>
       <r>    0.2176    1.0000 </r>
       <r>    0.2877    1.0000 </r>
       <r>    0.3303    1.0000 </r>
       <r>    0.4114    1.0000 </r>
       <r>    0.4672    1.0000 </r>
       <r>    0.5315    1.0000 </r>
       <r>    0.6222    1.0000 </r>
       <r>    0.7590    1.0000 </r>
       <r>    0.7680    1.0000 </r>
       <r>    0.7976    1.0000 </r>
       <r>    0.8091    1.0000 </r>
       <r>    0.8178    1.0000 </r>
       <r>    0.8495    1.0000 </r>
       <r>    1.0052    1.0000 </r>
       <r>    1.1114    1.0000 </r>
       <r>    1.2092    1.0000 </r>
       <r>    1.2258    1.0000 </r>
       <r>    1.2383    1.0000 </r>
       <r>    1.3461    1.0000 </r>
       <r>    1.3783    1.0000 </r>
       <r>    1.4056    1.0000 </r>
       <r>    1.4946    1.0000 </r>
       <r>    1.5863    1.0000 </r>
       <r>    1.6146    1.0000 </r>
       <r>    1.6398    1.0000 </r>
       <r>    1.7080    1.0000 </r>
       <r>    1.7375    1.0000 </r>
       <r>    1.7658    1.0000 </r>
       <r>    1.7858    1.0000 </r>
       <r>    1.8222    1.0000 </r>
       <r>    1.8407    1.0000 </r>
       <r>    1.8752    1.0000 </r>
       <r>    1.9216    1.0000 </r>
       <r>    1.9556    1.0000 </r>
       <r>    1.9609    1.0000 </r>
       <r>    2.0153    1.0000 </r>
       <r>    2.0580    1.0000 </r>
       <r>    2.1590    1.0000 </r>
       <r>    2.1876    1.0000 </r>
       <r>    2.2314    1.0000 </r>
       <r>    2.3255    1.0000 </r>
       <r>    2.4272    1.0000 </r>
       <r>    2.4726    1.0000 </r>
       <r>    2.5148    1.0000 </r>
       <r>    2.5400    1.0000 </r>
       <r>    2.5627    1.0000 </r>
       <r>    2.5798    1.0000 </r>
       <r>    2.5888    1.0000 </r>
       <r>    2.5904    1.0000 </r>
       <r>    2.5989    1.0000 </r>
       <r>    2.6050    1.0000 </r>
       <r>    2.6564    1.0000 </r>
       <r>    2.6813    1.0000 </r>
       <r>    2.7394    1.0000 </r>
       <r>    2.7710    1.0000 </r>
       <r>    2.7735    1.0000 </r>
       <r>    2.8159    1.0000 </r>
       <r>    2.8329    1.0000 </r>
       <r>    2.8459    1.0000 </r>
       <r>    2.8929    1.0000 </r>
       <r>    2.9260    1.0000 </r>
       <r>    2.9515    1.0000 </r>
       <r>    2.9650    1.0000 </r>
       <r>    2.9887    1.0000 </r>
       <r>    3.0284    1.0000 </r>
       <r>    3.0375    1.0000 </r>
       <r>    3.0664    1.0000 </r>
       <r>    3.1848    1.0000 </r>
       <r>    3.3102    1.0000 </r>
       <r>    3.3468    1.0000 </r>
       <r>    3.3912    1.0000 </r>
       <r>    3.4180    1.0000 </r>
       <r>    3.4390    1.0000 </r>
       <r>    3.4513    1.0000 </r>
       <r>    3.4759    1.0000 </r>
       <r>    3.5687    1.0000 </r>
       <r>    3.6651    1.0000 </r>
       <r>    4.2453    1.0000 </r>
       <r>    4.2535    1.0000 </r>
       <r>    4.2801    1.0000 </r>
       <r>    4.2827    1.0000 </r>
       <r>    5.1656    0.0000 </r>
       <r>    5.1708    0.0000 </r>
       <r>    5.2015    0.0000 </r>
       <r>    5.2042    0.0000 </r>
       <r>    5.7760    0.0000 </r>
       <r>    5.7826    0.0000 </r>
       <r>    5.8063    0.0000 </r>
       <r>    5.8156    0.0000 </r>
       <r>    6.1642    0.0000 </r>
       <r>    6.1785    0.0000 </r>
       <r>    6.1854    0.0000 </r>
       <r>    6.2076    0.0000 </r>
       <r>    6.2559    0.0000 </r>
       <r>    6.2603    0.0000 </r>
       <r>    6.2880    0.0000 </r>
       <r>    6.2950    0.0000 </r>
       <r>    6.8120    0.0000 </r>
       <r>    6.9020    0.0000 </r>
       <r>    6.9795    0.0000 </r>
       <r>    7.0727    0.0000 </r>
       <r>    7.2801    0.0000 </r>
       <r>    7.3655    0.0000 </r>
       <r>    7.4114    0.0000 </r>
       <r>    7.5414    0.0000 </r>
       <r>    7.7540    0.0000 </r>
       <r>    7.8323    0.0000 </r>
       <r>    7.9400    0.0000 </r>
       <r>    7.9754    0.0000 </r>
       <r>    8.0176    0.0000 </r>
       <r>    8.3103    0.0000 </r>
       <r>    8.3430    0.0000 </r>
       <r>    8.4757    0.0000 </r>
       <r>    8.6768    0.0000 </r>
       <r>    8.8678    0.0000 </r>
       <r>    8.9002    0.0000 </r>
       <r>    8.9507    0.0000 </r>
       <r>    9.0158    0.0000 </r>
       <r>    9.0508    0.0000 </r>
       <r>    9.0835    0.0000 </r>
       <r>    9.0918    0.0000 </r>
       <r>    9.1083    0.0000 </r>
       <r>    9.1619    0.0000 </r>
       <r>    9.1999    0.0000 </r>
       <r>    9.2055    0.0000 </r>
       <r>    9.4802    0.0000 </r>
       <r>    9.5096    0.0000 </r>
      </set>
      <set comment="kpoint 4">
       <r>  -40.2245    1.0000 </r>
       <r>  -40.1903    1.0000 </r>
       <r>  -40.0564    1.0000 </r>
       <r>  -40.0495    1.0000 </r>
       <r>  -39.8477    1.0000 </r>
       <r>  -39.7524    1.0000 </r>
       <r>  -39.7134    1.0000 </r>
       <r>  -39.6043    1.0000 </r>
       <r>  -39.5935    1.0000 </r>
       <r>  -39.3692    1.0000 </r>
       <r>  -18.9230    1.0000 </r>
       <r>  -18.9208    1.0000 </r>
       <r>  -18.8529    1.0000 </r>
       <r>  -18.8511    1.0000 </r>
       <r>  -18.8460    1.0000 </r>
       <r>  -18.8442    1.0000 </r>
       <r>  -18.7490    1.0000 </r>
       <r>  -18.7470    1.0000 </r>
       <r>  -18.7364    1.0000 </r>
       <r>  -18.7343    1.0000 </r>
       <r>  -18.7171    1.0000 </r>
       <r>  -18.7108    1.0000 </r>
       <r>  -18.7058    1.0000 </r>
       <r>  -18.7032    1.0000 </r>
       <r>  -18.7008    1.0000 </r>
       <r>  -18.6942    1.0000 </r>
       <r>  -18.6497    1.0000 </r>
       <r>  -18.6469    1.0000 </r>
       <r>  -18.6450    1.0000 </r>
       <r>  -18.6423    1.0000 </r>
       <r>  -18.6411    1.0000 </r>
       <r>  -18.6400    1.0000 </r>
       <r>  -18.6383    1.0000 </r>
       <r>  -18.6378    1.0000 </r>
       <r>  -18.6375    1.0000 </r>
       <r>  -18.6365    1.0000 </r>
       <r>  -18.6351    1.0000 </r>
       <r>  -18.6341    1.0000 </r>
       <r>  -18.6336    1.0000 </r>
       <r>  -18.6329    1.0000 </r>
       <r>  -18.6322    1.0000 </r>
       <r>  -18.6297    1.0000 </r>
       <r>  -18.6289    1.0000 </r>
       <r>  -18.6274    1.0000 </r>
       <r>  -18.6247    1.0000 </r>
       <r>  -18.6246    1.0000 </r>
       <r>  -18.6208    1.0000 </r>
       <r>  -18.6198    1.0000 </r>
       <r>  -18.6176    1.0000 </r>
       <r>  -18.6151    1.0000 </r>
       <r>  -18.5596    1.0000 </r>
       <r>  -18.5588    1.0000 </r>
       <r>  -18.5583    1.0000 </r>
       <r>  -18.5531    1.0000 </r>
       <r>  -18.5482    1.0000 </r>
       <r>  -18.5464    1.0000 </r>
       <r>  -18.5458    1.0000 </r>
       <r>  -18.5373    1.0000 </r>
       <r>  -18.5344    1.0000 </r>
       <r>  -18.5330    1.0000 </r>
       <r>  -18.4922    1.0000 </r>
       <r>  -18.4909    1.0000 </r>
       <r>  -18.4879    1.0000 </r>
       <r>  -18.4864    1.0000 </r>
       <r>  -18.4836    1.0000 </r>
       <r>  -18.4815    1.0000 </r>
       <r>  -18.4807    1.0000 </r>
       <r>  -18.4791    1.0000 </r>
       <r>  -18.4763    1.0000 </r>
       <r>  -18.4759    1.0000 </r>
[...]
       <r>    8.8708    0.0000 </r>
       <r>    8.8915    0.0000 </r>
       <r>    8.8999    0.0000 </r>
       <r>    8.9094    0.0000 </r>
       <r>    8.9387    0.0000 </r>
      </set>
     </set>
    </set>
   </array>
  </eigenvalues>
  <separator name="orbital magnetization" >
   <v name="MAGDIPOLOUT">      0.00000000      0.00000000      0.00000000</v>
  </separator>
  <dos>
   <i name="efermi">      4.28886911 </i>
   <total>
    <array>
     <dimension dim="1">gridpoints</dimension>
     <dimension dim="2">spin</dimension>
     <field>energy</field>
     <field>total</field>
     <field>integrated</field>
     <set>
      <set comment="spin 1">
       <r>   -42.7162     0.0000     0.0000 </r>
       <r>   -42.5335     0.0000     0.0000 </r>
       <r>   -42.3507     0.0000     0.0000 </r>
       <r>   -42.1680     0.0000     0.0000 </r>
       <r>   -41.9853     0.0000     0.0000 </r>
       <r>   -41.8026     0.0000     0.0000 </r>
       <r>   -41.6198     0.0000     0.0000 </r>
       <r>   -41.4371     0.0000     0.0000 </r>
       <r>   -41.2544     0.0000     0.0000 </r>
       <r>   -41.0717     0.0000     0.0000 </r>
       <r>   -40.8890     0.0000     0.0000 </r>
       <r>   -40.7062     0.0000     0.0000 </r>
       <r>   -40.5235     0.0000     0.0000 </r>
       <r>   -40.3408     0.0000     0.0000 </r>
       <r>   -40.1581     0.0000     4.0000 </r>
       <r>   -39.9754     0.0000     8.0000 </r>
       <r>   -39.7926     0.0000    10.0000 </r>
       <r>   -39.6099     0.0000    14.0000 </r>
       <r>   -39.4272     0.0000    18.0000 </r>
       <r>   -39.2445     0.0000    20.0000 </r>
       <r>   -39.0617     0.0000    20.0000 </r>
       <r>   -38.8790     0.0000    20.0000 </r>
       <r>   -38.6963     0.0000    20.0000 </r>
       <r>   -38.5136     0.0000    20.0000 </r>
       <r>   -38.3309     0.0000    20.0000 </r>
       <r>   -38.1481     0.0000    20.0000 </r>
       <r>   -37.9654     0.0000    20.0000 </r>
       <r>   -37.7827     0.0000    20.0000 </r>
       <r>   -37.6000     0.0000    20.0000 </r>
       <r>   -37.4173     0.0000    20.0000 </r>
       <r>   -37.2345     0.0000    20.0000 </r>
       <r>   -37.0518     0.0000    20.0000 </r>
       <r>   -36.8691     0.0000    20.0000 </r>
       <r>   -36.6864     0.0000    20.0000 </r>
       <r>   -36.5036     0.0000    20.0000 </r>
       <r>   -36.3209     0.0000    20.0000 </r>
       <r>   -36.1382     0.0000    20.0000 </r>
       <r>   -35.9555     0.0000    20.0000 </r>
       <r>   -35.7728     0.0000    20.0000 </r>
       <r>   -35.5900     0.0000    20.0000 </r>
       <r>   -35.4073     0.0000    20.0000 </r>
       <r>   -35.2246     0.0000    20.0000 </r>
       <r>   -35.0419     0.0000    20.0000 </r>
       <r>   -34.8592     0.0000    20.0000 </r>
       <r>   -34.6764     0.0000    20.0000 </r>
       <r>   -34.4937     0.0000    20.0000 </r>
       <r>   -34.3110     0.0000    20.0000 </r>
       <r>   -34.1283     0.0000    20.0000 </r>
       <r>   -33.9456     0.0000    20.0000 </r>
       <r>   -33.7628     0.0000    20.0000 </r>
       <r>   -33.5801     0.0000    20.0000 </r>
       <r>   -33.3974     0.0000    20.0000 </r>
       <r>   -33.2147     0.0000    20.0000 </r>
       <r>   -33.0319     0.0000    20.0000 </r>
       <r>   -32.8492     0.0000    20.0000 </r>
       <r>   -32.6665     0.0000    20.0000 </r>
       <r>   -32.4838     0.0000    20.0000 </r>
       <r>   -32.3011     0.0000    20.0000 </r>
       <r>   -32.1183     0.0000    20.0000 </r>
       <r>   -31.9356     0.0000    20.0000 </r>
       <r>   -31.7529     0.0000    20.0000 </r>
       <r>   -31.5702     0.0000    20.0000 </r>
       <r>   -31.3875     0.0000    20.0000 </r>
       <r>   -31.2047     0.0000    20.0000 </r>
       <r>   -31.0220     0.0000    20.0000 </r>
       <r>   -30.8393     0.0000    20.0000 </r>
       <r>   -30.6566     0.0000    20.0000 </r>
       <r>   -30.4738     0.0000    20.0000 </r>
       <r>   -30.2911     0.0000    20.0000 </r>
       <r>   -30.1084     0.0000    20.0000 </r>
       <r>   -29.9257     0.0000    20.0000 </r>
       <r>   -29.7430     0.0000    20.0000 </r>
       <r>   -29.5602     0.0000    20.0000 </r>
       <r>   -29.3775     0.0000    20.0000 </r>
       <r>   -29.1948     0.0000    20.0000 </r>
       <r>   -29.0121     0.0000    20.0000 </r>
       <r>   -28.8294     0.0000    20.0000 </r>
       <r>   -28.6466     0.0000    20.0000 </r>
       <r>   -28.4639     0.0000    20.0000 </r>
       <r>   -28.2812     0.0000    20.0000 </r>
       <r>   -28.0985     0.0000    20.0000 </r>
       <r>   -27.9158     0.0000    20.0000 </r>
       <r>   -27.7330     0.0000    20.0000 </r>
       <r>   -27.5503     0.0000    20.0000 </r>
       <r>   -27.3676     0.0000    20.0000 </r>
       <r>   -27.1849     0.0000    20.0000 </r>
       <r>   -27.0021     0.0000    20.0000 </r>
       <r>   -26.8194     0.0000    20.0000 </r>
       <r>   -26.6367     0.0000    20.0000 </r>
       <r>   -26.4540     0.0000    20.0000 </r>
       <r>   -26.2713     0.0000    20.0000 </r>
       <r>   -26.0885     0.0000    20.0000 </r>
       <r>   -25.9058     0.0000    20.0000 </r>
       <r>   -25.7231     0.0000    20.0000 </r>
       <r>   -25.5404     0.0000    20.0000 </r>
       <r>   -25.3577     0.0000    20.0000 </r>
       <r>   -25.1749     0.0000    20.0000 </r>
       <r>   -24.9922     0.0000    20.0000 </r>
       <r>   -24.8095     0.0000    20.0000 </r>
       <r>   -24.6268     0.0000    20.0000 </r>
       <r>   -24.4440     0.0000    20.0000 </r>
       <r>   -24.2613     0.0000    20.0000 </r>
       <r>   -24.0786     0.0000    20.0000 </r>
       <r>   -23.8959     0.0000    20.0000 </r>
       <r>   -23.7132     0.0000    20.0000 </r>
       <r>   -23.5304     0.0000    20.0000 </r>
       <r>   -23.3477     0.0000    20.0000 </r>
       <r>   -23.1650     0.0000    20.0000 </r>
       <r>   -22.9823     0.0000    20.0000 </r>
       <r>   -22.7996     0.0000    20.0000 </r>
       <r>   -22.6168     0.0000    20.0000 </r>
       <r>   -22.4341     0.0000    20.0000 </r>
       <r>   -22.2514     0.0000    20.0000 </r>
       <r>   -22.0687     0.0000    20.0000 </r>
       <r>   -21.8859     0.0000    20.0000 </r>
       <r>   -21.7032     0.0000    20.0000 </r>
       <r>   -21.5205     0.0000    20.0000 </r>
       <r>   -21.3378     0.0000    20.0000 </r>
       <r>   -21.1551     0.0000    20.0000 </r>
       <r>   -20.9723     0.0000    20.0000 </r>
       <r>   -20.7896     0.0000    20.0000 </r>
       <r>   -20.6069     0.0000    20.0000 </r>
       <r>   -20.4242     0.0000    20.0000 </r>
       <r>   -20.2415     0.0000    20.0000 </r>
       <r>   -20.0587     0.0000    20.0000 </r>
       <r>   -19.8760     0.0000    20.0000 </r>
       <r>   -19.6933     0.0000    20.0000 </r>
       <r>   -19.5106     0.0000    20.0000 </r>
       <r>   -19.3279     0.0000    20.0000 </r>
       <r>   -19.1451     0.0000    20.0000 </r>
       <r>   -18.9624     0.0000    20.0000 </r>
       <r>   -18.7797     0.0000    32.0000 </r>
       <r>   -18.5970     0.0000   100.0000 </r>
       <r>   -18.4142     0.0000   152.0000 </r>
       <r>   -18.2315     0.0000   172.0000 </r>
       <r>   -18.0488     0.0000   180.0000 </r>
       <r>   -17.8661     0.0000   180.0000 </r>
       <r>   -17.6834     0.0000   180.0000 </r>
       <r>   -17.5006     0.0000   180.0000 </r>
       <r>   -17.3179     0.0000   180.0000 </r>
       <r>   -17.1352     0.0000   180.0000 </r>
       <r>   -16.9525     0.0000   180.0000 </r>
       <r>   -16.7698     0.0000   180.0000 </r>
       <r>   -16.5870     0.0000   180.0000 </r>
       <r>   -16.4043     0.0000   180.0000 </r>
       <r>   -16.2216     0.0000   180.0000 </r>
       <r>   -16.0389     0.0000   180.0000 </r>
       <r>   -15.8561     0.0000   180.0000 </r>
       <r>   -15.6734     0.0000   180.0000 </r>
       <r>   -15.4907     0.0000   180.0000 </r>
       <r>   -15.3080     0.0000   180.0000 </r>
       <r>   -15.1253     0.0000   180.0000 </r>
       <r>   -14.9425     0.0000   180.0000 </r>
       <r>   -14.7598     0.0000   180.0000 </r>
       <r>   -14.5771     0.0000   180.0000 </r>
       <r>   -14.3944     0.0000   180.0000 </r>
       <r>   -14.2117     0.0000   180.0000 </r>
       <r>   -14.0289     0.0000   180.0000 </r>
       <r>   -13.8462     0.0000   180.0000 </r>
       <r>   -13.6635     0.0000   180.0000 </r>
       <r>   -13.4808     0.0000   182.0000 </r>
       <r>   -13.2981     0.0000   184.0000 </r>
       <r>   -13.1153     0.0000   184.0000 </r>
       <r>   -12.9326     0.0000   184.0000 </r>
       <r>   -12.7499     0.0000   192.0000 </r>
       <r>   -12.5672     0.0000   206.0000 </r>
       <r>   -12.3844     0.0000   208.0000 </r>
       <r>   -12.2017     0.0000   208.0000 </r>
       <r>   -12.0190     0.0000   208.0000 </r>
       <r>   -11.8363     0.0000   212.0000 </r>
       <r>   -11.6536     0.0000   212.0000 </r>
       <r>   -11.4708     0.0000   212.0000 </r>
       <r>   -11.2881     0.0000   212.0000 </r>
       <r>   -11.1054     0.0000   212.0000 </r>
       <r>   -10.9227     0.0000   212.0000 </r>
       <r>   -10.7400     0.0000   212.0000 </r>
       <r>   -10.5572     0.0000   212.0000 </r>
       <r>   -10.3745     0.0000   212.0000 </r>
       <r>   -10.1918     0.0000   212.0000 </r>
       <r>   -10.0091     0.0000   212.0000 </r>
       <r>    -9.8263     0.0000   212.0000 </r>
       <r>    -9.6436     0.0000   212.0000 </r>
       <r>    -9.4609     0.0000   212.0000 </r>
       <r>    -9.2782     2.7761   212.0516 </r>
       <r>    -9.0955    10.2740   213.5662 </r>
       <r>    -8.9127     0.0000   216.0000 </r>
       <r>    -8.7300    14.5547   218.4466 </r>
       <r>    -8.5473    13.4410   220.8029 </r>
       <r>    -8.3646    28.0097   225.2226 </r>
       <r>    -8.1819    20.7494   228.4542 </r>
       <r>    -7.9991    25.4020   233.0701 </r>
       <r>    -7.8164    16.7817   236.8470 </r>
       <r>    -7.6337     5.9518   240.0117 </r>
       <r>    -7.4510    11.4567   243.4188 </r>
       <r>    -7.2682     0.0000   244.0000 </r>
       <r>    -7.0855     0.0000   244.0000 </r>
       <r>    -6.9028     0.0000   244.0000 </r>
       <r>    -6.7201     0.0000   244.0000 </r>
       <r>    -6.5374     0.0000   244.0000 </r>
       <r>    -6.3546     0.1571   244.0004 </r>
       <r>    -6.1719    17.5512   245.5470 </r>
       <r>    -5.9892    19.0012   249.9890 </r>
       <r>    -5.8065    20.8931   253.3564 </r>
       <r>    -5.6238    23.0358   258.1016 </r>
       <r>    -5.4410    22.7749   262.0529 </r>
       <r>    -5.2583    17.0767   265.7094 </r>
       <r>    -5.0756     5.4821   267.7574 </r>
       <r>    -4.8929     7.0346   268.6255 </r>
       <r>    -4.7102     8.0709   270.0154 </r>
       <r>    -4.5274    10.2689   271.7328 </r>
       <r>    -4.3447     5.9342   273.1516 </r>
       <r>    -4.1620     7.0185   274.4129 </r>
       <r>    -3.9793     3.9834   275.4302 </r>
       <r>    -3.7965     1.2444   275.8788 </r>
       <r>    -3.6138     0.1012   275.9983 </r>
       <r>    -3.4311     0.0000   276.0000 </r>
       <r>    -3.2484     0.0000   276.0000 </r>
       <r>    -3.0657     0.0000   276.0000 </r>
       <r>    -2.8829     0.0000   276.0000 </r>
       <r>    -2.7002     0.0000   276.0000 </r>
       <r>    -2.5175     0.0000   276.0000 </r>
       <r>    -2.3348     0.0000   276.0000 </r>
       <r>    -2.1521     0.0000   276.0000 </r>
       <r>    -1.9693     0.0000   276.0000 </r>
       <r>    -1.7866     0.0000   276.0000 </r>
       <r>    -1.6039     0.0000   276.0000 </r>
       <r>    -1.4212     0.0000   276.0000 </r>
       <r>    -1.2384     5.6289   276.3029 </r>
       <r>    -1.0557     9.6855   277.7965 </r>
       <r>    -0.8730    13.3775   280.0524 </r>
       <r>    -0.6903     8.9394   282.1155 </r>
       <r>    -0.5076     4.9636   283.3713 </r>
       <r>    -0.3248    22.0658   285.8851 </r>
       <r>    -0.1421    29.5976   290.2559 </r>
       <r>     0.0406    37.5925   297.4758 </r>
       <r>     0.2233    31.8220   303.1114 </r>
       <r>     0.4060    35.5314   310.0690 </r>
       <r>     0.5888    43.3419   317.2740 </r>
       <r>     0.7715    31.0890   323.9819 </r>
       <r>     0.9542    32.3948   330.2802 </r>
       <r>     1.1369    48.2457   338.2670 </r>
       <r>     1.3196    45.5090   347.0132 </r>
       <r>     1.5024    48.0132   355.5486 </r>
       <r>     1.6851    49.1620   364.9529 </r>
       <r>     1.8678    66.9519   374.3193 </r>
       <r>     2.0505    39.6280   382.2006 </r>
       <r>     2.2333    42.5134   390.4879 </r>
       <r>     2.4160    49.5735   398.3062 </r>
       <r>     2.5987    60.7252   409.5084 </r>
       <r>     2.7814    76.4428   421.6826 </r>
       <r>     2.9641    75.7922   434.0885 </r>
       <r>     3.1469    52.3071   445.5331 </r>
       <r>     3.3296    33.1040   451.8186 </r>
       <r>     3.5123    44.7045   458.5794 </r>
       <r>     3.6950    12.0774   462.9631 </r>
       <r>     3.8777    12.9805   465.6060 </r>
       <r>     4.0605     6.5330   467.3890 </r>
       <r>     4.2432     0.3376   467.9957 </r>
       <r>     4.4259     0.0000   468.0000 </r>
       <r>     4.6086     0.0000   468.0000 </r>
       <r>     4.7914     0.0000   468.0000 </r>
       <r>     4.9741     0.0000   468.0000 </r>
       <r>     5.1568     0.3135   468.0057 </r>
       <r>     5.3395     4.0931   468.3951 </r>
       <r>     5.5222     8.0513   469.5045 </r>
       <r>     5.7050     9.0881   471.1787 </r>
       <r>     5.8877    19.7984   474.9923 </r>
       <r>     6.0704    12.6071   477.6324 </r>
       <r>     6.2531    11.4867   479.7854 </r>
       <r>     6.4358    13.0435   482.0150 </r>
       <r>     6.6186    14.7331   484.5530 </r>
       <r>     6.8013    16.4137   487.3981 </r>
       <r>     6.9840    18.7696   490.5852 </r>
       <r>     7.1667    26.2611   494.5584 </r>
       <r>     7.3495    38.6185   500.6211 </r>
       <r>     7.5322    27.1128   508.2296 </r>
       <r>     7.7149    33.4797   512.9923 </r>
       <r>     7.8976    46.8510   520.9107 </r>
       <r>     8.0803    29.0824   529.0867 </r>
       <r>     8.2631    19.4976   533.2775 </r>
       <r>     8.4458    19.6105   536.7280 </r>
       <r>     8.6285    26.2713   540.8697 </r>
       <r>     8.8112    38.6821   545.8681 </r>
       <r>     8.9939    33.4341   553.9494 </r>
       <r>     9.1767    12.6734   557.9891 </r>
       <r>     9.3594     5.4303   559.5263 </r>
       <r>     9.5421     0.4056   559.9910 </r>
       <r>     9.7248     0.0000   560.0000 </r>
       <r>     9.9075     0.0000   560.0000 </r>
       <r>    10.0903     0.0000   560.0000 </r>
       <r>    10.2730     0.0000   560.0000 </r>
       <r>    10.4557     0.0000   560.0000 </r>
       <r>    10.6384     0.0000   560.0000 </r>
       <r>    10.8212     0.0000   560.0000 </r>
       <r>    11.0039     0.0000   560.0000 </r>
       <r>    11.1866     0.0000   560.0000 </r>
       <r>    11.3693     0.0000   560.0000 </r>
       <r>    11.5520     0.0000   560.0000 </r>
       <r>    11.7348     0.0000   560.0000 </r>
       <r>    11.9175     0.0000   560.0000 </r>
       <r>    12.1002     0.0000   560.0000 </r>
      </set>
     </set>
    </array>
   </total>
  </dos>
 </calculation>
 <structure name="finalpos" >
  <crystal>
   <varray name="basis" >
    <v>      11.17850000       0.00000000       0.00000000 </v>
    <v>       0.00000000       9.57460000       0.00000000 </v>
    <v>       0.00000000       0.00000000      11.18240000 </v>
   </varray>
   <i name="volume">   1196.84853820 </i>
   <varray name="rec_basis" >
    <v>       0.08945744       0.00000000       0.00000000 </v>
    <v>       0.00000000       0.10444301       0.00000000 </v>
    <v>       0.00000000       0.00000000       0.08942624 </v>
   </varray>
  </crystal>
  <varray name="positions" >
   <v>       0.37539000       0.00017000       0.43687000 </v>
   <v>       0.12461000       0.99984000       0.18687000 </v>
   <v>       0.62539000       0.99984000       0.43687000 </v>
   <v>       0.87461000       0.00017000       0.18687000 </v>
   <v>       0.12539000       0.99984000       0.93687000 </v>
   <v>       0.37539000       0.00017000       0.93687000 </v>
   <v>       0.12461000       0.99984000       0.68687000 </v>
   <v>       0.37461000       0.00017000       0.68687000 </v>
   <v>       0.62539000       0.99984000       0.93687000 </v>
   <v>       0.62461000       0.99984000       0.68687000 </v>
   <v>       0.37461000       0.00017000       0.18687000 </v>
   <v>       0.87539000       0.00017000       0.43687000 </v>
   <v>       0.87539000       0.00017000       0.93687000 </v>
   <v>       0.00013000       0.29519000       0.06281000 </v>
   <v>       0.25013000       0.70481000       0.06281000 </v>
   <v>       0.24987000       0.29519000       0.31282000 </v>
   <v>       0.49987000       0.70481000       0.31282000 </v>
   <v>       0.50013000       0.29519000       0.06281000 </v>
   <v>       0.75013000       0.70481000       0.06281000 </v>
   <v>       0.74987000       0.29519000       0.31282000 </v>
   <v>       0.99987000       0.70481000       0.31282000 </v>
   <v>       0.00013000       0.29519000       0.56281000 </v>
   <v>       0.25013000       0.70481000       0.56281000 </v>
   <v>       0.24987000       0.29519000       0.81282000 </v>
   <v>       0.49987000       0.70481000       0.81282000 </v>
   <v>       0.50013000       0.29519000       0.56281000 </v>
   <v>       0.75013000       0.70481000       0.56281000 </v>
   <v>       0.74987000       0.29519000       0.81282000 </v>
   <v>       0.99987000       0.70481000       0.81282000 </v>
   <v>       0.25005000       0.32677000       0.06286000 </v>
   <v>       0.00005000       0.67323000       0.06286000 </v>
   <v>       0.49995000       0.32677000       0.31286000 </v>
   <v>       0.24995000       0.67323000       0.31286000 </v>
   <v>       0.75005000       0.32677000       0.06286000 </v>
   <v>       0.50005000       0.67323000       0.06286000 </v>
   <v>       0.99995000       0.32677000       0.31286000 </v>
   <v>       0.74995000       0.67323000       0.31286000 </v>
   <v>       0.25005000       0.32677000       0.56286000 </v>
   <v>       0.00005000       0.67323000       0.56286000 </v>
   <v>       0.49995000       0.32677000       0.81286000 </v>
   <v>       0.24995000       0.67323000       0.81286000 </v>
   <v>       0.75005000       0.32677000       0.56286000 </v>
   <v>       0.50005000       0.67323000       0.56286000 </v>
   <v>       0.99995000       0.32677000       0.81286000 </v>
   <v>       0.74995000       0.67323000       0.81286000 </v>
   <v>       0.49987000       0.07798000       0.06246000 </v>
   <v>       0.24987000       0.92202000       0.06246000 </v>
   <v>       0.25013000       0.07798000       0.31246000 </v>
   <v>       0.00013000       0.92202000       0.31246000 </v>
   <v>       0.99987000       0.07798000       0.06246000 </v>
   <v>       0.74987000       0.92202000       0.06246000 </v>
   <v>       0.75013000       0.07798000       0.31246000 </v>
   <v>       0.50013000       0.92202000       0.31246000 </v>
   <v>       0.49987000       0.07798000       0.56246000 </v>
   <v>       0.24987000       0.92202000       0.56246000 </v>
   <v>       0.25013000       0.07798000       0.81246000 </v>
   <v>       0.00013000       0.92202000       0.81246000 </v>
   <v>       0.99987000       0.07798000       0.56246000 </v>
   <v>       0.74987000       0.92202000       0.56246000 </v>
   <v>       0.75013000       0.07798000       0.81246000 </v>
   <v>       0.50013000       0.92202000       0.81246000 </v>
  </varray>
 </structure>
</modeling>
