<?xml version="1.0" encoding="ISO-8859-1"?>
<modeling>
 <generator>
  <i name="program" type="string">vasp </i>
  <i name="version" type="string">5.4.4.18Apr17-6-g9f103f2a35  </i>
  <i name="subversion" type="string">(build Jul 31 2017 11:33:29) complex            parallel </i>
  <i name="platform" type="string">LinuxIFC </i>
  <i name="date" type="string">2021 09 29 </i>
  <i name="time" type="string">02:44:00 </i>
 </generator>
 <incar>
  <i type="string" name="SYSTEM"> La2O2S</i>
  <i type="string" name="PREC">normal</i>
  <i type="int" name="NELMIN">     4</i>
  <i type="int" name="IBRION">     2</i>
  <i type="int" name="NFREE">    10</i>
  <i name="EDIFF">      0.00000100</i>
  <i name="EDIFFG">     -0.01000000</i>
  <i type="int" name="NSW">     1</i>
  <i type="int" name="ISIF">     2</i>
  <i name="ENCUT">    600.00000000</i>
  <i name="ENAUG">    900.00000000</i>
  <i type="int" name="ISMEAR">    -5</i>
  <i type="logical" name="LWAVE"> F  </i>
  <i type="logical" name="LCHARG"> F  </i>
  <v type="int" name="KPOINT_BSE">    -1     0     0     0</v>
 </incar>
 <structure name="primitive_cell" >
  <crystal>
   <varray name="basis" >
    <v>      11.17850000       0.00000000       0.00000000 </v>
    <v>       0.00000000       9.57460000       0.00000000 </v>
    <v>       0.00000000       0.00000000      11.18240000 </v>
   </varray>
   <i name="volume">   1196.84853820 </i>
   <varray name="rec_basis" >
    <v>       0.08945744       0.00000000       0.00000000 </v>
    <v>       0.00000000       0.10444301       0.00000000 </v>
    <v>       0.00000000       0.00000000       0.08942624 </v>
   </varray>
  </crystal>
  <varray name="positions" >
   <v>       0.37539000       0.00017000       0.43687000 </v>
   <v>      -0.49987000      -0.07798000       0.31246000 </v>
   <v>       0.25013000       0.07798000       0.31246000 </v>
   <v>       0.49987000       0.07798000      -0.43754000 </v>
   <v>       0.24987000      -0.07798000      -0.43754000 </v>
   <v>      -0.37461000      -0.00016000       0.43687000 </v>
   <v>       0.37461000       0.00017000      -0.31313000 </v>
   <v>       0.37461000       0.00017000       0.18687000 </v>
   <v>       0.49987000      -0.29519000       0.31282000 </v>
   <v>       0.24987000       0.29519000       0.31282000 </v>
   <v>      -0.49987000       0.29519000      -0.43719000 </v>
   <v>       0.25013000      -0.29519000      -0.43719000 </v>
   <v>       0.49995000       0.32677000       0.31286000 </v>
   <v>       0.24995000      -0.32677000       0.31286000 </v>
   <v>      -0.49995000      -0.32677000      -0.43714000 </v>
   <v>       0.25005000       0.32677000      -0.43714000 </v>
   <v>      -0.37539000      -0.00016000      -0.31313000 </v>
   <v>       0.12461000      -0.00016000       0.18687000 </v>
   <v>       0.12461000      -0.00016000      -0.31313000 </v>
   <v>       0.49987000       0.07798000       0.06246000 </v>
   <v>      -0.24987000       0.07798000       0.31246000 </v>
   <v>      -0.25013000      -0.07798000      -0.43754000 </v>
   <v>       0.24987000      -0.07798000       0.06246000 </v>
   <v>       0.00013000      -0.07798000       0.31246000 </v>
   <v>      -0.49987000      -0.07798000      -0.18754000 </v>
   <v>      -0.00013000       0.07798000      -0.43754000 </v>
   <v>       0.25013000       0.07798000      -0.18754000 </v>
   <v>      -0.49987000       0.29519000       0.06281000 </v>
   <v>      -0.25013000       0.29519000       0.31282000 </v>
   <v>       0.25013000      -0.29519000       0.06281000 </v>
   <v>      -0.24987000      -0.29519000      -0.43719000 </v>
   <v>      -0.00013000      -0.29519000       0.31282000 </v>
   <v>       0.00013000       0.29519000      -0.43719000 </v>
   <v>       0.49987000      -0.29519000      -0.18718000 </v>
   <v>       0.24987000       0.29519000      -0.18718000 </v>
   <v>      -0.49995000      -0.32677000       0.06286000 </v>
   <v>       0.25005000       0.32677000       0.06286000 </v>
   <v>      -0.25005000      -0.32677000       0.31286000 </v>
   <v>      -0.24995000       0.32677000      -0.43714000 </v>
   <v>      -0.00005000       0.32677000       0.31286000 </v>
   <v>       0.00005000      -0.32677000      -0.43714000 </v>
   <v>       0.49995000       0.32677000      -0.18714000 </v>
   <v>       0.24995000      -0.32677000      -0.18714000 </v>
   <v>      -0.12461000       0.00017000       0.43687000 </v>
   <v>      -0.25013000      -0.07798000       0.06246000 </v>
   <v>      -0.00013000       0.07798000       0.06246000 </v>
   <v>      -0.24987000       0.07798000      -0.18754000 </v>
   <v>       0.00013000      -0.07798000      -0.18754000 </v>
   <v>      -0.12539000       0.00017000       0.18687000 </v>
   <v>      -0.12539000       0.00017000      -0.31313000 </v>
   <v>       0.12539000      -0.00016000      -0.06313000 </v>
   <v>      -0.37461000      -0.00016000      -0.06313000 </v>
   <v>      -0.24987000      -0.29519000       0.06281000 </v>
   <v>       0.00013000       0.29519000       0.06281000 </v>
   <v>      -0.25013000       0.29519000      -0.18718000 </v>
   <v>      -0.00013000      -0.29519000      -0.18718000 </v>
   <v>      -0.24995000       0.32677000       0.06286000 </v>
   <v>       0.00005000      -0.32677000       0.06286000 </v>
   <v>      -0.25005000      -0.32677000      -0.18714000 </v>
   <v>      -0.00005000       0.32677000      -0.18714000 </v>
   <v>      -0.12461000       0.00017000      -0.06313000 </v>
  </varray>
 </structure>
 <varray name="primitive_index" >
  <v type="int" >        1 </v>
  <v type="int" >       53 </v>
  <v type="int" >       48 </v>
  <v type="int" >       54 </v>
  <v type="int" >       55 </v>
  <v type="int" >        3 </v>
  <v type="int" >        7 </v>
  <v type="int" >       11 </v>
  <v type="int" >       17 </v>
  <v type="int" >       16 </v>
  <v type="int" >       26 </v>
  <v type="int" >       23 </v>
  <v type="int" >       32 </v>
  <v type="int" >       33 </v>
  <v type="int" >       43 </v>
  <v type="int" >       38 </v>
  <v type="int" >        9 </v>
  <v type="int" >        2 </v>
  <v type="int" >       12 </v>
  <v type="int" >       46 </v>
  <v type="int" >       52 </v>
  <v type="int" >       59 </v>
  <v type="int" >       47 </v>
  <v type="int" >       49 </v>
  <v type="int" >       61 </v>
  <v type="int" >       58 </v>
  <v type="int" >       56 </v>
  <v type="int" >       18 </v>
  <v type="int" >       20 </v>
  <v type="int" >       15 </v>
  <v type="int" >       27 </v>
  <v type="int" >       21 </v>
  <v type="int" >       22 </v>
  <v type="int" >       25 </v>
  <v type="int" >       24 </v>
  <v type="int" >       35 </v>
  <v type="int" >       30 </v>
  <v type="int" >       37 </v>
  <v type="int" >       42 </v>
  <v type="int" >       36 </v>
  <v type="int" >       39 </v>
  <v type="int" >       40 </v>
  <v type="int" >       41 </v>
  <v type="int" >        4 </v>
  <v type="int" >       51 </v>
  <v type="int" >       50 </v>
  <v type="int" >       60 </v>
  <v type="int" >       57 </v>
  <v type="int" >        5 </v>
  <v type="int" >       10 </v>
  <v type="int" >        6 </v>
  <v type="int" >       13 </v>
  <v type="int" >       19 </v>
  <v type="int" >       14 </v>
  <v type="int" >       28 </v>
  <v type="int" >       29 </v>
  <v type="int" >       34 </v>
  <v type="int" >       31 </v>
  <v type="int" >       45 </v>
  <v type="int" >       44 </v>
  <v type="int" >        8 </v>
 </varray>
 <kpoints>
  <generation param="Gamma">
   <v type="int" name="divisions">       2        2        2 </v>
   <v name="usershift">      0.00000000       0.00000000       0.00000000 </v>
   <v name="genvec1">      0.50000000       0.00000000       0.00000000 </v>
   <v name="genvec2">      0.00000000       0.50000000       0.00000000 </v>
   <v name="genvec3">      0.00000000       0.00000000       0.50000000 </v>
   <v name="shift">      0.00000000       0.00000000       0.00000000 </v>
  </generation>
  <varray name="kpointlist" >
   <v>       0.00000000       0.00000000       0.00000000 </v>
   <v>       0.50000000       0.00000000       0.00000000 </v>
   <v>       0.00000000       0.50000000       0.00000000 </v>
   <v>       0.50000000       0.50000000       0.00000000 </v>
   <v>       0.00000000       0.00000000       0.50000000 </v>
   <v>       0.50000000       0.00000000       0.50000000 </v>
   <v>       0.00000000       0.50000000       0.50000000 </v>
   <v>       0.50000000       0.50000000       0.50000000 </v>
  </varray>
  <varray name="weights" >
   <v>       0.12500000 </v>
   <v>       0.12500000 </v>
   <v>       0.12500000 </v>
   <v>       0.12500000 </v>
   <v>       0.12500000 </v>
   <v>       0.12500000 </v>
   <v>       0.12500000 </v>
   <v>       0.12500000 </v>
  </varray>
  <varray name="tetrahedronlist"  type="int" >
   <v type="int" >        2        1        2        4        5 </v>
   <v type="int" >        2        1        3        4        5 </v>
   <v type="int" >        2        3        4        5        7 </v>
   <v type="int" >        2        2        4        5        6 </v>
   <v type="int" >        2        4        5        6        8 </v>
   <v type="int" >        2        4        5        7        8 </v>
   <v type="int" >        2        1        2        3        6 </v>
   <v type="int" >        2        2        3        4        6 </v>
   <v type="int" >        2        3        4        6        8 </v>
   <v type="int" >        2        1        3        5        6 </v>
   <v type="int" >        2        3        5        6        7 </v>
   <v type="int" >        2        3        6        7        8 </v>
   <v type="int" >        2        2        3        4        7 </v>
   <v type="int" >        2        1        2        3        7 </v>
   <v type="int" >        2        1        2        5        7 </v>
   <v type="int" >        2        2        4        7        8 </v>
   <v type="int" >        2        2        6        7        8 </v>
   <v type="int" >        2        2        5        6        7 </v>
   <v type="int" >        2        1        3        4        8 </v>
   <v type="int" >        2        1        2        4        8 </v>
   <v type="int" >        2        1        2        6        8 </v>
   <v type="int" >        2        1        3        7        8 </v>
   <v type="int" >        2        1        5        7        8 </v>
   <v type="int" >        2        1        5        6        8 </v>
  </varray>
  <i name="volumeweight">      0.02083333 </i>
 </kpoints>
 <parameters>
  <separator name="general" >
   <i type="string" name="SYSTEM">La2O2S</i>
   <i type="logical" name="LCOMPAT"> F  </i>
  </separator>
  <separator name="electronic" >
   <i type="string" name="PREC">normal</i>
   <i name="ENMAX">    600.00000000</i>
   <i name="ENAUG">    900.00000000</i>
   <i name="EDIFF">      0.00000100</i>
   <i type="int" name="IALGO">    38</i>
   <i type="int" name="IWAVPR">    11</i>
   <i type="int" name="NBANDS">   280</i>
   <i name="NELECT">    468.00000000</i>
   <i type="int" name="TURBO">     0</i>
   <i type="int" name="IRESTART">     0</i>
   <i type="int" name="NREBOOT">     0</i>
   <i type="int" name="NMIN">     0</i>
   <i name="EREF">      0.00000000</i>
   <separator name="electronic smearing" >
    <i type="int" name="ISMEAR">    -5</i>
    <i name="SIGMA">      0.20000000</i>
    <i name="KSPACING">      0.50000000</i>
    <i type="logical" name="KGAMMA"> T  </i>
   </separator>
   <separator name="electronic projectors" >
    <i type="logical" name="LREAL"> F  </i>
    <v name="ROPT">      0.00000000      0.00000000      0.00000000      0.00000000      0.00000000</v>
    <i type="int" name="LMAXPAW">  -100</i>
    <i type="int" name="LMAXMIX">     2</i>
    <i type="logical" name="NLSPLINE"> F  </i>
   </separator>
   <separator name="electronic startup" >
    <i type="int" name="ISTART">     0</i>
    <i type="int" name="ICHARG">     2</i>
    <i type="int" name="INIWAV">     1</i>
   </separator>
   <separator name="electronic spin" >
    <i type="int" name="ISPIN">     1</i>
    <i type="logical" name="LNONCOLLINEAR"> F  </i>
    <v name="MAGMOM">      1.00000000      1.00000000      1.00000000      1.00000000      1.00000000      1.00000000      1.00000000      1.00000000      1.00000000      1.00000000      1.00000000      1.00000000      1.00000000      1.00000000      1.00000000      1.00000000      1.00000000      1.00000000      1.00000000      1.00000000
      1.00000000      1.00000000      1.00000000      1.00000000      1.00000000      1.00000000      1.00000000      1.00000000      1.00000000      1.00000000      1.00000000      1.00000000      1.00000000      1.00000000      1.00000000      1.00000000      1.00000000      1.00000000      1.00000000      1.00000000
      1.00000000      1.00000000      1.00000000      1.00000000      1.00000000      1.00000000      1.00000000      1.00000000      1.00000000      1.00000000      1.00000000      1.00000000      1.00000000      1.00000000      1.00000000      1.00000000      1.00000000      1.00000000      1.00000000      1.00000000
      1.00000000</v>
    <i name="NUPDOWN">     -1.00000000</i>
    <i type="logical" name="LSORBIT"> F  </i>
    <v name="SAXIS">      0.00000000      0.00000000      1.00000000</v>
    <i type="logical" name="LSPIRAL"> F  </i>
    <v name="QSPIRAL">      0.00000000      0.00000000      0.00000000</v>
    <i type="logical" name="LZEROZ"> F  </i>
   </separator>
   <separator name="electronic exchange-correlation" >
    <i type="logical" name="LASPH"> F  </i>
    <i type="logical" name="LMETAGGA"> F  </i>
   </separator>
   <separator name="electronic convergence" >
    <i type="int" name="NELM">    60</i>
    <i type="int" name="NELMDL">    -5</i>
    <i type="int" name="NELMIN">     4</i>
    <i name="ENINI">    600.00000000</i>
    <separator name="electronic convergence detail" >
     <i type="logical" name="LDIAG"> T  </i>
     <i type="logical" name="LSUBROT"> F  </i>
     <i name="WEIMIN">      0.00100000</i>
     <i name="EBREAK">      0.00000000</i>
     <i name="DEPER">      0.30000000</i>
     <i type="int" name="NRMM">     4</i>
     <i name="TIME">      0.40000000</i>
    </separator>
   </separator>
   <separator name="electronic mixer" >
    <i name="AMIX">      0.40000000</i>
    <i name="BMIX">      1.00000000</i>
    <i name="AMIN">      0.10000000</i>
    <i name="AMIX_MAG">      1.60000000</i>
    <i name="BMIX_MAG">      1.00000000</i>
    <separator name="electronic mixer details" >
     <i type="int" name="IMIX">     4</i>
     <i type="logical" name="MIXFIRST"> F  </i>
     <i type="int" name="MAXMIX">   -45</i>
     <i name="WC">    100.00000000</i>
     <i type="int" name="INIMIX">     1</i>
     <i type="int" name="MIXPRE">     1</i>
     <i type="int" name="MREMOVE">     5</i>
    </separator>
   </separator>
   <separator name="electronic dipolcorrection" >
    <i type="logical" name="LDIPOL"> F  </i>
    <i type="logical" name="LMONO"> F  </i>
    <i type="int" name="IDIPOL">     0</i>
    <i name="EPSILON">      1.00000000</i>
    <v name="DIPOL">   -100.00000000   -100.00000000   -100.00000000</v>
    <i name="EFIELD">      0.00000000</i>
   </separator>
  </separator>
  <separator name="grids" >
   <i type="int" name="NGX">    70</i>
   <i type="int" name="NGY">    60</i>
   <i type="int" name="NGZ">    70</i>
   <i type="int" name="NGXF">   140</i>
   <i type="int" name="NGYF">   120</i>
   <i type="int" name="NGZF">   140</i>
   <i type="logical" name="ADDGRID"> F  </i>
  </separator>
  <separator name="ionic" >
   <i type="int" name="NSW">     1</i>
   <i type="int" name="IBRION">     2</i>
   <i type="int" name="MDALGO">     0</i>
   <i type="int" name="ISIF">     2</i>
   <i name="PSTRESS">      0.00000000</i>
   <i name="EDIFFG">     -0.01000000</i>
   <i type="int" name="NFREE">    10</i>
   <i name="POTIM">      0.50000000</i>
   <i name="SMASS">     -3.00000000</i>
   <i name="SCALEE">      1.00000000</i>
  </separator>
  <separator name="ionic md" >
   <i name="TEBEG">      0.00010000</i>
   <i name="TEEND">      0.00010000</i>
   <i type="int" name="NBLOCK">     1</i>
   <i type="int" name="KBLOCK">     1</i>
   <i type="int" name="NPACO">   256</i>
   <i name="APACO">     16.00000000</i>
  </separator>
  <separator name="symmetry" >
   <i type="int" name="ISYM">     2</i>
   <i name="SYMPREC">      0.00001000</i>
  </separator>
  <separator name="dos" >
   <i type="int" name="LORBIT">     0</i>
   <v name="RWIGS">     -1.00000000     -1.00000000     -1.00000000     -1.00000000     -1.00000000</v>
   <i type="int" name="NEDOS">   301</i>
   <i name="EMIN">     10.00000000</i>
   <i name="EMAX">    -10.00000000</i>
   <i name="EFERMI">      0.00000000</i>
  </separator>
  <separator name="writing" >
   <i type="int" name="NWRITE">     2</i>
   <i type="logical" name="LWAVE"> F  </i>
   <i type="logical" name="LDOWNSAMPLE"> F  </i>
   <i type="logical" name="LCHARG"> F  </i>
   <i type="logical" name="LPARD"> F  </i>
   <i type="logical" name="LVTOT"> F  </i>
   <i type="logical" name="LVHAR"> F  </i>
   <i type="logical" name="LELF"> F  </i>
   <i type="logical" name="LOPTICS"> F  </i>
   <v name="STM">      0.00000000      0.00000000      0.00000000      0.00000000      0.00000000      0.00000000      0.00000000</v>
  </separator>
  <separator name="performance" >
   <i type="int" name="NPAR">    28</i>
   <i type="int" name="NSIM">     4</i>
   <i type="int" name="NBLK">    -1</i>
   <i type="logical" name="LPLANE"> T  </i>
   <i type="logical" name="LSCALAPACK"> T  </i>
   <i type="logical" name="LSCAAWARE"> F  </i>
   <i type="logical" name="LSCALU"> F  </i>
   <i type="logical" name="LASYNC"> F  </i>
   <i type="logical" name="LORBITALREAL"> F  </i>
  </separator>
  <separator name="miscellaneous" >
   <i type="int" name="IDIOT">     3</i>
   <i type="int" name="ISPECIAL">     0</i>
   <i type="logical" name="LMUSIC"> F  </i>
   <v name="POMASS">      7.01000000     24.30500000    208.98000000     32.06600000     16.00000000</v>
   <v name="DARWINR">      0.00000000      0.00000000      0.00000000      0.00000000      0.00000000</v>
   <v name="DARWINV">      1.00000000      1.00000000      1.00000000      1.00000000      1.00000000</v>
   <i type="logical" name="LCORR"> T  </i>
  </separator>
  <i type="logical" name="GGA_COMPAT"> T  </i>
  <i type="logical" name="LBERRY"> F  </i>
  <i type="int" name="ICORELEVEL">     0</i>
  <i type="logical" name="LDAU"> F  </i>
  <i type="int" name="I_CONSTRAINED_M">     0</i>
  <separator name="electronic exchange-correlation" >
   <i type="string" name="GGA">--</i>
   <i type="int" name="VOSKOWN">     0</i>
   <i type="logical" name="LHFCALC"> F  </i>
   <i type="string" name="PRECFOCK"></i>
   <i type="logical" name="LSYMGRAD"> F  </i>
   <i type="logical" name="LHFONE"> F  </i>
   <i type="logical" name="LRHFCALC"> F  </i>
   <i type="logical" name="LTHOMAS"> F  </i>
   <i type="logical" name="LMODELHF"> F  </i>
   <i name="ENCUT4O">     -1.00000000</i>
   <i type="int" name="EXXOEP">     0</i>
   <i type="int" name="FOURORBIT">     0</i>
   <i name="AEXX">      0.00000000</i>
   <i name="HFALPHA">      0.00000000</i>
   <i name="MCALPHA">      0.00000000</i>
   <i name="ALDAX">      1.00000000</i>
   <i name="AGGAX">      1.00000000</i>
   <i name="ALDAC">      1.00000000</i>
   <i name="AGGAC">      1.00000000</i>
   <i type="int" name="NKREDX">     1</i>
   <i type="int" name="NKREDY">     1</i>
   <i type="int" name="NKREDZ">     1</i>
   <i type="logical" name="SHIFTRED"> F  </i>
   <i type="logical" name="ODDONLY"> F  </i>
   <i type="logical" name="EVENONLY"> F  </i>
   <i type="int" name="LMAXFOCK">     0</i>
   <i type="int" name="NMAXFOCKAE">     0</i>
   <i type="logical" name="LFOCKAEDFT"> F  </i>
   <i name="HFSCREEN">      0.00000000</i>
   <i name="HFSCREENC">      0.00000000</i>
   <i type="int" name="NBANDSGWLOW">     0</i>
  </separator>
  <separator name="vdW DFT" >
   <i type="logical" name="LUSE_VDW"> F  </i>
   <i name="Zab_VDW">     -0.84910000</i>
   <i name="PARAM1">      0.12340000</i>
   <i name="PARAM2">      1.00000000</i>
   <i name="PARAM3">      0.00000000</i>
  </separator>
  <separator name="model GW" >
   <i type="int" name="MODEL_GW">     0</i>
   <i name="MODEL_EPS0">     11.77228070</i>
   <i name="MODEL_ALPHA">      1.00000000</i>
  </separator>
  <separator name="linear response parameters" >
   <i type="logical" name="LEPSILON"> F  </i>
   <i type="logical" name="LRPA"> F  </i>
   <i type="logical" name="LNABLA"> F  </i>
   <i type="logical" name="LVEL"> F  </i>
   <i type="int" name="KINTER">     0</i>
   <i name="CSHIFT">      0.10000000</i>
   <i name="OMEGAMAX">     -1.00000000</i>
   <i name="DEG_THRESHOLD">      0.00200000</i>
   <i name="RTIME">     -0.10000000</i>
   <i name="WPLASMAI">      0.00000000</i>
   <v name="DFIELD">      0.00000000      0.00000000      0.00000000</v>
   <v name="WPLASMA">      0.00000000      0.00000000      0.00000000      0.00000000      0.00000000      0.00000000      0.00000000      0.00000000      0.00000000</v>
  </separator>
  <separator name="orbital magnetization" >
   <i type="logical" name="NUCIND"> F  </i>
   <v name="MAGPOS">      0.00000000      0.00000000      0.00000000</v>
   <i type="logical" name="LNICSALL"> T  </i>
   <i type="logical" name="ORBITALMAG"> F  </i>
   <i type="logical" name="LMAGBLOCH"> F  </i>
   <i type="logical" name="LCHIMAG"> F  </i>
   <i type="logical" name="LGAUGE"> T  </i>
   <i type="int" name="MAGATOM">     0</i>
   <v name="MAGDIPOL">      0.00000000      0.00000000      0.00000000</v>
   <v name="AVECCONST">      0.00000000      0.00000000      0.00000000</v>
  </separator>
  <separator name="response functions" >
   <i type="logical" name="LADDER"> F  </i>
   <i type="logical" name="LRPAFORCE"> F  </i>
   <i type="logical" name="LFXC"> F  </i>
   <i type="logical" name="LHARTREE"> T  </i>
   <i type="int" name="IBSE">     0</i>
   <v type="int" name="KPOINT">    -1     0     0     0</v>
   <i type="logical" name="LTCTE"> F  </i>
   <i type="logical" name="LTETE"> F  </i>
   <i type="logical" name="LTRIPLET"> F  </i>
   <i type="logical" name="LFXCEPS"> F  </i>
   <i type="logical" name="LFXHEG"> F  </i>
   <i type="int" name="NATURALO">     2</i>
   <i type="logical" name="L2ORDER"> F  </i>
   <i type="logical" name="LMP2LT"> F  </i>
   <i type="logical" name="LUSEW"> F  </i>
   <i name="ENCUTGW">     -2.00000000</i>
   <i name="ENCUTGWSOFT">     -2.00000000</i>
   <i name="ENCUTLF">     -1.00000000</i>
   <i type="int" name="LMAXMP2">    -1</i>
   <i name="SCISSOR">      0.00000000</i>
   <i type="int" name="NOMEGA">     0</i>
   <i type="int" name="NOMEGAR">     0</i>
   <i type="int" name="NBANDSGW">    -1</i>
   <i type="int" name="NBANDSO">    -1</i>
   <i type="int" name="NBANDSV">    -1</i>
   <i type="int" name="NELM">     1</i>
   <i type="int" name="NELMHF">     1</i>
   <i type="int" name="DIM">     3</i>
   <i type="int" name="ANTIRES">     0</i>
   <i name="OMEGAMAX">    -30.00000000</i>
   <i name="OMEGAMIN">    -30.00000000</i>
   <i name="OMEGATL">   -200.00000000</i>
   <i type="int" name="OMEGAGRID">   140</i>
   <i name="CSHIFT">     -0.10000000</i>
   <i type="logical" name="SELFENERGY"> F  </i>
   <i type="logical" name="LSPECTRAL"> F  </i>
   <i type="logical" name="LSPECTRALGW"> F  </i>
   <i type="logical" name="LSINGLES"> F  </i>
   <i type="logical" name="LFERMIGW"> F  </i>
   <i type="logical" name="ODDONLYGW"> F  </i>
   <i type="logical" name="EVENONLYGW"> F  </i>
   <i type="int" name="NKREDLFX">     1</i>
   <i type="int" name="NKREDLFY">     1</i>
   <i type="int" name="NKREDLFZ">     1</i>
   <i type="int" name="MAXMEM">  2800</i>
   <i type="int" name="TELESCOPE">     0</i>
   <i type="int" name="TAUPAR">     1</i>
   <i type="int" name="OMEGAPAR">    -1</i>
   <i name="LAMBDA">      1.00000000</i>
  </separator>
  <separator name="External order field" >
   <i name="OFIELD_KAPPA">      0.00000000</i>
   <v name="OFIELD_K">      0.00000000      0.00000000      0.00000000</v>
   <i name="OFIELD_Q6_NEAR">      0.00000000</i>
   <i name="OFIELD_Q6_FAR">      0.00000000</i>
   <i name="OFIELD_A">      0.00000000</i>
  </separator>
 </parameters>
 <atominfo>
  <atoms>      61 </atoms>
  <types>       5 </types>
  <array name="atoms" >
   <dimension dim="1">ion</dimension>
   <field type="string">element</field>
   <field type="int">atomtype</field>
   <set>
    <rc><c>Li</c><c>   1</c></rc>
    <rc><c>Li</c><c>   1</c></rc>
    <rc><c>Li</c><c>   1</c></rc>
    <rc><c>Li</c><c>   1</c></rc>
    <rc><c>Li</c><c>   1</c></rc>
    <rc><c>Li</c><c>   1</c></rc>
    <rc><c>Li</c><c>   1</c></rc>
    <rc><c>Li</c><c>   1</c></rc>
    <rc><c>Li</c><c>   1</c></rc>
    <rc><c>Li</c><c>   1</c></rc>
    <rc><c>Mg</c><c>   2</c></rc>
    <rc><c>Mg</c><c>   2</c></rc>
    <rc><c>Mg</c><c>   2</c></rc>
    <rc><c>Bi</c><c>   3</c></rc>
    <rc><c>Bi</c><c>   3</c></rc>
    <rc><c>Bi</c><c>   3</c></rc>
    <rc><c>Bi</c><c>   3</c></rc>
    <rc><c>Bi</c><c>   3</c></rc>
    <rc><c>Bi</c><c>   3</c></rc>
    <rc><c>Bi</c><c>   3</c></rc>
    <rc><c>Bi</c><c>   3</c></rc>
    <rc><c>Bi</c><c>   3</c></rc>
    <rc><c>Bi</c><c>   3</c></rc>
    <rc><c>Bi</c><c>   3</c></rc>
    <rc><c>Bi</c><c>   3</c></rc>
    <rc><c>Bi</c><c>   3</c></rc>
    <rc><c>Bi</c><c>   3</c></rc>
    <rc><c>Bi</c><c>   3</c></rc>
    <rc><c>Bi</c><c>   3</c></rc>
    <rc><c>S </c><c>   4</c></rc>
    <rc><c>S </c><c>   4</c></rc>
    <rc><c>S </c><c>   4</c></rc>
    <rc><c>S </c><c>   4</c></rc>
    <rc><c>S </c><c>   4</c></rc>
    <rc><c>S </c><c>   4</c></rc>
    <rc><c>S </c><c>   4</c></rc>
    <rc><c>S </c><c>   4</c></rc>
    <rc><c>S </c><c>   4</c></rc>
    <rc><c>S </c><c>   4</c></rc>
    <rc><c>S </c><c>   4</c></rc>
    <rc><c>S </c><c>   4</c></rc>
    <rc><c>S </c><c>   4</c></rc>
    <rc><c>S </c><c>   4</c></rc>
    <rc><c>S </c><c>   4</c></rc>
    <rc><c>S </c><c>   4</c></rc>
    <rc><c>O </c><c>   5</c></rc>
    <rc><c>O </c><c>   5</c></rc>
    <rc><c>O </c><c>   5</c></rc>
    <rc><c>O </c><c>   5</c></rc>
    <rc><c>O </c><c>   5</c></rc>
    <rc><c>O </c><c>   5</c></rc>
    <rc><c>O </c><c>   5</c></rc>
    <rc><c>O </c><c>   5</c></rc>
    <rc><c>O </c><c>   5</c></rc>
    <rc><c>O </c><c>   5</c></rc>
    <rc><c>O </c><c>   5</c></rc>
    <rc><c>O </c><c>   5</c></rc>
    <rc><c>O </c><c>   5</c></rc>
    <rc><c>O </c><c>   5</c></rc>
    <rc><c>O </c><c>   5</c></rc>
    <rc><c>O </c><c>   5</c></rc>
   </set>
  </array>
  <array name="atomtypes" >
   <dimension dim="1">type</dimension>
   <field type="int">atomspertype</field>
   <field type="string">element</field>
   <field>mass</field>
   <field>valence</field>
   <field type="string">pseudopotential</field>
   <set>
    <rc><c>  10</c><c>Li</c><c>      7.01000000</c><c>      3.00000000</c><c>  PAW_PBE Li_sv 10Sep2004               </c></rc>
    <rc><c>   3</c><c>Mg</c><c>     24.30500000</c><c>      2.00000000</c><c>  PAW_PBE Mg 13Apr2007                  </c></rc>
    <rc><c>  16</c><c>Bi</c><c>    208.98000000</c><c>     15.00000000</c><c>  PAW_PBE Bi_d 06Sep2000                </c></rc>
    <rc><c>  16</c><c>S </c><c>     32.06600000</c><c>      6.00000000</c><c>  PAW_PBE S 06Sep2000                   </c></rc>
    <rc><c>  16</c><c>O </c><c>     16.00000000</c><c>      6.00000000</c><c>  PAW_PBE O 08Apr2002                   </c></rc>
   </set>
  </array>
 </atominfo>
 <structure name="initialpos" >
  <crystal>
   <varray name="basis" >
    <v>      11.17850000       0.00000000       0.00000000 </v>
    <v>       0.00000000       9.57460000       0.00000000 </v>
    <v>       0.00000000       0.00000000      11.18240000 </v>
   </varray>
   <i name="volume">   1196.84853820 </i>
   <varray name="rec_basis" >
    <v>       0.08945744       0.00000000       0.00000000 </v>
    <v>       0.00000000       0.10444301       0.00000000 </v>
    <v>       0.00000000       0.00000000       0.08942624 </v>
   </varray>
  </crystal>
  <varray name="positions" >
   <v>       0.37539000       0.00017000       0.43687000 </v>
   <v>       0.12461000       0.99984000       0.18687000 </v>
   <v>       0.62539000       0.99984000       0.43687000 </v>
   <v>       0.87539000       0.00017000       0.43687000 </v>
   <v>       0.87461000       0.00017000       0.18687000 </v>
   <v>       0.12539000       0.99984000       0.93687000 </v>
   <v>       0.37461000       0.00017000       0.68687000 </v>
   <v>       0.87539000       0.00017000       0.93687000 </v>
   <v>       0.62461000       0.99984000       0.68687000 </v>
   <v>       0.87461000       0.00017000       0.68687000 </v>
   <v>       0.37461000       0.00017000       0.18687000 </v>
   <v>       0.12461000       0.99984000       0.68687000 </v>
   <v>       0.62539000       0.99984000       0.93687000 </v>
   <v>       0.00013000       0.29519000       0.06281000 </v>
   <v>       0.25013000       0.70481000       0.06281000 </v>
   <v>       0.24987000       0.29519000       0.31282000 </v>
   <v>       0.49987000       0.70481000       0.31282000 </v>
   <v>       0.50013000       0.29519000       0.06281000 </v>
   <v>       0.75013000       0.70481000       0.06281000 </v>
   <v>       0.74987000       0.29519000       0.31282000 </v>
   <v>       0.99987000       0.70481000       0.31282000 </v>
   <v>       0.00013000       0.29519000       0.56281000 </v>
   <v>       0.25013000       0.70481000       0.56281000 </v>
   <v>       0.24987000       0.29519000       0.81282000 </v>
   <v>       0.49987000       0.70481000       0.81282000 </v>
   <v>       0.50013000       0.29519000       0.56281000 </v>
   <v>       0.75013000       0.70481000       0.56281000 </v>
   <v>       0.74987000       0.29519000       0.81282000 </v>
   <v>       0.99987000       0.70481000       0.81282000 </v>
   <v>       0.25005000       0.32677000       0.06286000 </v>
   <v>       0.00005000       0.67323000       0.06286000 </v>
   <v>       0.49995000       0.32677000       0.31286000 </v>
   <v>       0.24995000       0.67323000       0.31286000 </v>
   <v>       0.75005000       0.32677000       0.06286000 </v>
   <v>       0.50005000       0.67323000       0.06286000 </v>
   <v>       0.99995000       0.32677000       0.31286000 </v>
   <v>       0.74995000       0.67323000       0.31286000 </v>
   <v>       0.25005000       0.32677000       0.56286000 </v>
   <v>       0.00005000       0.67323000       0.56286000 </v>
   <v>       0.49995000       0.32677000       0.81286000 </v>
   <v>       0.24995000       0.67323000       0.81286000 </v>
   <v>       0.75005000       0.32677000       0.56286000 </v>
   <v>       0.50005000       0.67323000       0.56286000 </v>
   <v>       0.99995000       0.32677000       0.81286000 </v>
   <v>       0.74995000       0.67323000       0.81286000 </v>
   <v>       0.49987000       0.07798000       0.06246000 </v>
   <v>       0.24987000       0.92202000       0.06246000 </v>
   <v>       0.25013000       0.07798000       0.31246000 </v>
   <v>       0.00013000       0.92202000       0.31246000 </v>
   <v>       0.99987000       0.07798000       0.06246000 </v>
   <v>       0.74987000       0.92202000       0.06246000 </v>
   <v>       0.75013000       0.07798000       0.31246000 </v>
   <v>       0.50013000       0.92202000       0.31246000 </v>
   <v>       0.49987000       0.07798000       0.56246000 </v>
   <v>       0.24987000       0.92202000       0.56246000 </v>
   <v>       0.25013000       0.07798000       0.81246000 </v>
   <v>       0.00013000       0.92202000       0.81246000 </v>
   <v>       0.99987000       0.07798000       0.56246000 </v>
   <v>       0.74987000       0.92202000       0.56246000 </v>
   <v>       0.75013000       0.07798000       0.81246000 </v>
   <v>       0.50013000       0.92202000       0.81246000 </v>
  </varray>
 </structure>
 <calculation>
  <scstep>
   <time name="dav">   59.88   59.96</time>
   <time name="total">   59.96   60.05</time>
   <energy>
    <i name="alphaZ">   1073.51873187 </i>
    <i name="ewald"> -30879.53733892 </i>
    <i name="hartreedc"> -12709.66319983 </i>
    <i name="XCdc">   1394.96914801 </i>
    <i name="pawpsdc">  36823.70205594 </i>
    <i name="pawaedc"> -36326.52930246 </i>
    <i name="eentropy">      0.00000000 </i>
    <i name="bandstr">   1803.39238737 </i>
    <i name="atom">  44791.06186932 </i>
    <i name="e_fr_energy">   5970.91435131 </i>
    <i name="e_wo_entrp">   5970.91435131 </i>
    <i name="e_0_energy">   5970.91435131 </i>
   </energy>
  </scstep>
  <scstep>
   <time name="dav">   60.23   60.31</time>
   <time name="total">   60.24   60.32</time>
   <energy>
    <i name="e_fr_energy">    804.20621536 </i>
    <i name="e_wo_entrp">    804.20621536 </i>
    <i name="e_0_energy">    804.20621536 </i>
   </energy>
  </scstep>
  <scstep>
   <time name="dav">   68.98   69.03</time>
   <time name="total">   68.98   69.03</time>
   <energy>
    <i name="e_fr_energy">   -240.87657312 </i>
    <i name="e_wo_entrp">   -240.87657312 </i>
    <i name="e_0_energy">   -240.87657312 </i>
   </energy>
  </scstep>
  <scstep>
   <time name="dav">   72.79   72.79</time>
   <time name="total">   72.79   72.80</time>
   <energy>
    <i name="e_fr_energy">   -346.20070844 </i>
    <i name="e_wo_entrp">   -346.20070844 </i>
    <i name="e_0_energy">   -346.20070844 </i>
   </energy>
  </scstep>
  <scstep>
   <time name="dav">   96.25   96.27</time>
   <time name="total">   96.98   97.00</time>
   <energy>
    <i name="e_fr_energy">   -355.19264767 </i>
    <i name="e_wo_entrp">   -355.19264767 </i>
    <i name="e_0_energy">   -355.19264767 </i>
   </energy>
  </scstep>
  <scstep>
   <time name="dav">   85.42   85.50</time>
   <time name="total">   86.20   86.30</time>
   <energy>
    <i name="e_fr_energy">   -296.59409750 </i>
    <i name="e_wo_entrp">   -296.59409750 </i>
    <i name="e_0_energy">   -296.59409750 </i>
   </energy>
  </scstep>
  <scstep>
   <time name="dav">   64.89   64.94</time>
   <time name="total">   65.69   65.74</time>
   <energy>
    <i name="e_fr_energy">   -299.39524700 </i>
    <i name="e_wo_entrp">   -299.39524700 </i>
    <i name="e_0_energy">   -299.39524700 </i>
   </energy>
  </scstep>
  <scstep>
   <time name="dav">   80.10   80.22</time>
   <time name="total">   80.90   81.02</time>
   <energy>
    <i name="e_fr_energy">   -298.15448377 </i>
    <i name="e_wo_entrp">   -298.15448377 </i>
    <i name="e_0_energy">   -298.15448377 </i>
   </energy>
  </scstep>
  <scstep>
   <time name="dav">   78.21   78.23</time>
   <time name="total">   79.01   79.03</time>
   <energy>
    <i name="e_fr_energy">   -297.51091882 </i>
    <i name="e_wo_entrp">   -297.51091882 </i>
    <i name="e_0_energy">   -297.51091882 </i>
   </energy>
  </scstep>
  <scstep>
   <time name="dav">   74.34   74.45</time>
   <time name="total">   75.14   75.25</time>
   <energy>
    <i name="e_fr_energy">   -297.52402649 </i>
    <i name="e_wo_entrp">   -297.52402649 </i>
    <i name="e_0_energy">   -297.52402649 </i>
   </energy>
  </scstep>
  <scstep>
   <time name="dav">   75.00   74.99</time>
   <time name="total">   75.80   75.79</time>
   <energy>
    <i name="e_fr_energy">   -297.53428474 </i>
    <i name="e_wo_entrp">   -297.53428474 </i>
    <i name="e_0_energy">   -297.53428474 </i>
   </energy>
  </scstep>
  <scstep>
   <time name="dav">   84.31   84.31</time>
   <time name="total">   85.11   85.11</time>
   <energy>
    <i name="e_fr_energy">   -297.53766302 </i>
    <i name="e_wo_entrp">   -297.53766302 </i>
    <i name="e_0_energy">   -297.53766302 </i>
   </energy>
  </scstep>
  <scstep>
   <time name="dav">   71.79   71.79</time>
   <time name="total">   72.59   72.59</time>
   <energy>
    <i name="e_fr_energy">   -297.53906228 </i>
    <i name="e_wo_entrp">   -297.53906228 </i>
    <i name="e_0_energy">   -297.53906228 </i>
   </energy>
  </scstep>
  <scstep>
   <time name="dav">   77.63   77.64</time>
   <time name="total">   78.43   78.45</time>
   <energy>
    <i name="e_fr_energy">   -297.53930805 </i>
    <i name="e_wo_entrp">   -297.53930805 </i>
    <i name="e_0_energy">   -297.53930805 </i>
   </energy>
  </scstep>
  <scstep>
   <time name="dav">   75.03   75.06</time>
   <time name="total">   75.82   75.86</time>
   <energy>
    <i name="e_fr_energy">   -297.53935310 </i>
    <i name="e_wo_entrp">   -297.53935310 </i>
    <i name="e_0_energy">   -297.53935310 </i>
   </energy>
  </scstep>
  <scstep>
   <time name="dav">   64.97   65.19</time>
   <time name="total">   65.76   65.99</time>
   <energy>
    <i name="e_fr_energy">   -297.53936937 </i>
    <i name="e_wo_entrp">   -297.53936937 </i>
    <i name="e_0_energy">   -297.53936937 </i>
   </energy>
  </scstep>
  <scstep>
   <time name="dav">   63.86   64.06</time>
   <time name="total">   64.68   64.89</time>
   <energy>
    <i name="e_fr_energy">   -297.53937245 </i>
    <i name="e_wo_entrp">   -297.53937245 </i>
    <i name="e_0_energy">   -297.53937245 </i>
   </energy>
  </scstep>
  <scstep>
   <time name="dav">   60.37   60.57</time>
   <time name="total">   61.16   61.37</time>
   <energy>
    <i name="e_fr_energy">   -297.53937348 </i>
    <i name="e_wo_entrp">   -297.53937348 </i>
    <i name="e_0_energy">   -297.53937348 </i>
   </energy>
  </scstep>
  <scstep>
   <time name="dav">   46.45   46.59</time>
   <time name="total">   46.52   46.67</time>
   <energy>
    <i name="alphaZ">   1073.51873187 </i>
    <i name="ewald"> -30879.53733892 </i>
    <i name="hartreedc"> -12946.73606481 </i>
    <i name="XCdc">   1418.55532846 </i>
    <i name="pawpsdc">  43848.21315362 </i>
    <i name="pawaedc"> -43325.67115114 </i>
    <i name="eentropy">      0.00000000 </i>
    <i name="bandstr">  -4276.94390134 </i>
    <i name="atom">  44791.06186932 </i>
    <i name="e_fr_energy">   -297.53937293 </i>
    <i name="e_wo_entrp">   -297.53937293 </i>
    <i name="e_0_energy">   -297.53937293 </i>
   </energy>
  </scstep>
  <structure>
   <crystal>
    <varray name="basis" >
     <v>      11.17850000       0.00000000       0.00000000 </v>
     <v>       0.00000000       9.57460000       0.00000000 </v>
     <v>       0.00000000       0.00000000      11.18240000 </v>
    </varray>
    <i name="volume">   1196.84853820 </i>
    <varray name="rec_basis" >
     <v>       0.08945744       0.00000000       0.00000000 </v>
     <v>       0.00000000       0.10444301       0.00000000 </v>
     <v>       0.00000000       0.00000000       0.08942624 </v>
    </varray>
   </crystal>
   <varray name="positions" >
    <v>       0.37539000       0.00017000       0.43687000 </v>
    <v>       0.12461000       0.99984000       0.18687000 </v>
    <v>       0.62539000       0.99984000       0.43687000 </v>
    <v>       0.87539000       0.00017000       0.43687000 </v>
    <v>       0.87461000       0.00017000       0.18687000 </v>
    <v>       0.12539000       0.99984000       0.93687000 </v>
    <v>       0.37461000       0.00017000       0.68687000 </v>
    <v>       0.87539000       0.00017000       0.93687000 </v>
    <v>       0.62461000       0.99984000       0.68687000 </v>
    <v>       0.87461000       0.00017000       0.68687000 </v>
    <v>       0.37461000       0.00017000       0.18687000 </v>
    <v>       0.12461000       0.99984000       0.68687000 </v>
    <v>       0.62539000       0.99984000       0.93687000 </v>
    <v>       0.00013000       0.29519000       0.06281000 </v>
    <v>       0.25013000       0.70481000       0.06281000 </v>
    <v>       0.24987000       0.29519000       0.31282000 </v>
    <v>       0.49987000       0.70481000       0.31282000 </v>
    <v>       0.50013000       0.29519000       0.06281000 </v>
    <v>       0.75013000       0.70481000       0.06281000 </v>
    <v>       0.74987000       0.29519000       0.31282000 </v>
    <v>       0.99987000       0.70481000       0.31282000 </v>
    <v>       0.00013000       0.29519000       0.56281000 </v>
    <v>       0.25013000       0.70481000       0.56281000 </v>
    <v>       0.24987000       0.29519000       0.81282000 </v>
    <v>       0.49987000       0.70481000       0.81282000 </v>
    <v>       0.50013000       0.29519000       0.56281000 </v>
    <v>       0.75013000       0.70481000       0.56281000 </v>
    <v>       0.74987000       0.29519000       0.81282000 </v>
    <v>       0.99987000       0.70481000       0.81282000 </v>
    <v>       0.25005000       0.32677000       0.06286000 </v>
    <v>       0.00005000       0.67323000       0.06286000 </v>
    <v>       0.49995000       0.32677000       0.31286000 </v>
    <v>       0.24995000       0.67323000       0.31286000 </v>
    <v>       0.75005000       0.32677000       0.06286000 </v>
    <v>       0.50005000       0.67323000       0.06286000 </v>
    <v>       0.99995000       0.32677000       0.31286000 </v>
    <v>       0.74995000       0.67323000       0.31286000 </v>
    <v>       0.25005000       0.32677000       0.56286000 </v>
    <v>       0.00005000       0.67323000       0.56286000 </v>
    <v>       0.49995000       0.32677000       0.81286000 </v>
    <v>       0.24995000       0.67323000       0.81286000 </v>
    <v>       0.75005000       0.32677000       0.56286000 </v>
    <v>       0.50005000       0.67323000       0.56286000 </v>
    <v>       0.99995000       0.32677000       0.81286000 </v>
    <v>       0.74995000       0.67323000       0.81286000 </v>
    <v>       0.49987000       0.07798000       0.06246000 </v>
    <v>       0.24987000       0.92202000       0.06246000 </v>
    <v>       0.25013000       0.07798000       0.31246000 </v>
    <v>       0.00013000       0.92202000       0.31246000 </v>
    <v>       0.99987000       0.07798000       0.06246000 </v>
    <v>       0.74987000       0.92202000       0.06246000 </v>
    <v>       0.75013000       0.07798000       0.31246000 </v>
    <v>       0.50013000       0.92202000       0.31246000 </v>
    <v>       0.49987000       0.07798000       0.56246000 </v>
    <v>       0.24987000       0.92202000       0.56246000 </v>
    <v>       0.25013000       0.07798000       0.81246000 </v>
    <v>       0.00013000       0.92202000       0.81246000 </v>
    <v>       0.99987000       0.07798000       0.56246000 </v>
    <v>       0.74987000       0.92202000       0.56246000 </v>
    <v>       0.75013000       0.07798000       0.81246000 </v>
    <v>       0.50013000       0.92202000       0.81246000 </v>
   </varray>
  </structure>
  <varray name="forces" >
   <v>      -0.26677028       0.00002864       0.19562898 </v>
   <v>      -0.30090700      -0.06369335       0.38311508 </v>
   <v>       0.07542613       0.06445777      -0.45432796 </v>
   <v>       0.25486825      -0.00490307      -0.26582525 </v>
   <v>      -0.25234677       0.00182483       0.28855109 </v>
   <v>       0.42246968       0.06686597       0.43857726 </v>
   <v>       0.23215202       0.00178998       0.22494406 </v>
   <v>       0.22357274       0.00142004       0.28758632 </v>
   <v>      -0.15922508      -0.06509975      -0.33908893 </v>
   <v>      -0.22201475      -0.00337402      -0.28675924 </v>
   <v>       0.61956132      -0.00567017      -0.49235957 </v>
   <v>       0.24969425       0.12062336      -0.81755997 </v>
   <v>      -0.85172973      -0.11290978       0.92346829 </v>
   <v>      -0.01117517       0.04120410       0.25085756 </v>
   <v>      -0.00099092       0.00616464      -0.04330147 </v>
   <v>      -0.25357799      -0.00194268       0.18430723 </v>
   <v>       0.26143829       0.03217864      -0.02154057 </v>
   <v>       0.00058233      -0.14018738       0.14857897 </v>
   <v>      -0.01183988       0.00655806       0.44473826 </v>
   <v>      -0.04236917      -1.01476581      -0.10013591 </v>
   <v>       0.05905226       1.02709785       0.08500455 </v>
   <v>       0.01411082      -0.00830667      -0.44413878 </v>
   <v>      -0.03951374       0.01628413      -0.34160937 </v>
   <v>       0.23486905       0.02977401       0.18358893 </v>
   <v>      -0.22442325      -0.00925245       0.00394212 </v>
   <v>       0.02007051       0.03349790      -0.14800212 </v>
   <v>      -0.01999411      -0.02614465      -0.25125110 </v>
   <v>       0.04585162       1.06192279      -0.11106459 </v>
   <v>      -0.03327849      -1.04990817       0.09188247 </v>
   <v>       0.00321857       0.14628306      -0.01930017 </v>
   <v>      -0.00060673      -0.19699537      -0.26611891 </v>
   <v>      -0.15087496       0.17261209      -0.00405008 </v>
   <v>       0.14959971      -0.17554932      -0.05981756 </v>
   <v>      -0.01009015       0.11857083      -0.32207959 </v>
   <v>       0.00358922      -0.08453658      -0.08120695 </v>
   <v>       0.08883749       0.20982062      -0.02285476 </v>
   <v>      -0.08511495      -0.20991027       0.02966324 </v>
   <v>      -0.02826568       0.13828099       0.13591841 </v>
   <v>       0.02624397      -0.11227029       0.31937972 </v>
   <v>       0.15242405       0.09540920       0.00541591 </v>
   <v>      -0.15160384      -0.09943256      -0.05896421 </v>
   <v>      -0.00466736       0.19094680       0.26239659 </v>
   <v>       0.00570467      -0.19538337       0.07810321 </v>
   <v>      -0.03813019       0.11917723      -0.03634441 </v>
   <v>       0.04001467      -0.11743537       0.03383128 </v>
   <v>       0.04518981       0.29939301      -0.09942723 </v>
   <v>      -0.15387564      -0.05997637       1.00313528 </v>
   <v>       1.10322167       0.00297376      -1.06953062 </v>
   <v>      -0.54347386      -0.85880160      -0.61454835 </v>
   <v>       0.00098843      -0.02941870      -0.23931441 </v>
   <v>       0.13613906       0.00203199      -1.32731426 </v>
   <v>       0.52951396       0.85674034       0.61857034 </v>
   <v>      -1.15448234      -0.08725044       0.12910741 </v>
   <v>       0.00959057      -0.02211927       0.08830988 </v>
   <v>       0.12731487      -0.04567208       1.17017746 </v>
   <v>      -1.17313840      -0.11369566      -1.06388461 </v>
   <v>       0.38065492       0.82697466      -0.46671382 </v>
   <v>      -0.13352460      -0.00024985       1.31330926 </v>
   <v>       0.00819491       0.02808098       0.23917469 </v>
   <v>      -0.39234744      -0.82980252       0.45218566 </v>
   <v>       1.18619262       0.02566927      -0.14501475 </v>
  </varray>
  <varray name="stress" >
   <v>      -7.53295784       0.18687690       0.24908999 </v>
   <v>       0.18687689     -14.24943022       0.02638236 </v>
   <v>       0.24909026       0.02638235      -9.83149173 </v>
  </varray>
  <energy>
   <i name="e_fr_energy">   -312.18399995 </i>
   <i name="e_wo_entrp">   -312.18399995 </i>
   <i name="e_0_energy">      0.00000000 </i>
  </energy>
  <time name="totalsc"> 1478.84 1480.60</time>
  <eigenvalues>
   <array>
    <dimension dim="1">band</dimension>
    <dimension dim="2">kpoint</dimension>
    <dimension dim="3">spin</dimension>
    <field>eigene</field>
    <field>occ</field>
    <set>
     <set comment="spin 1">
      <set comment="kpoint 1">
       <r>  -40.2275    1.0000 </r>
       <r>  -40.2180    1.0000 </r>
       <r>  -40.0521    1.0000 </r>
       <r>  -40.0170    1.0000 </r>
       <r>  -39.8500    1.0000 </r>
       <r>  -39.7579    1.0000 </r>
       <r>  -39.6005    1.0000 </r>
       <r>  -39.5573    1.0000 </r>
       <r>  -39.4081    1.0000 </r>
       <r>  -39.3991    1.0000 </r>
       <r>  -18.9235    1.0000 </r>
       <r>  -18.9205    1.0000 </r>
       <r>  -18.8533    1.0000 </r>
       <r>  -18.8511    1.0000 </r>
       <r>  -18.8463    1.0000 </r>
       <r>  -18.8442    1.0000 </r>
       <r>  -18.7496    1.0000 </r>
       <r>  -18.7466    1.0000 </r>
       <r>  -18.7368    1.0000 </r>
       <r>  -18.7344    1.0000 </r>
       <r>  -18.7190    1.0000 </r>
       <r>  -18.7121    1.0000 </r>
       <r>  -18.7081    1.0000 </r>
       <r>  -18.7055    1.0000 </r>
       <r>  -18.7024    1.0000 </r>
       <r>  -18.6959    1.0000 </r>
       <r>  -18.6452    1.0000 </r>
       <r>  -18.6428    1.0000 </r>
       <r>  -18.6413    1.0000 </r>
       <r>  -18.6382    1.0000 </r>
       <r>  -18.6370    1.0000 </r>
       <r>  -18.6352    1.0000 </r>
       <r>  -18.6347    1.0000 </r>
       <r>  -18.6343    1.0000 </r>
       <r>  -18.6324    1.0000 </r>
       <r>  -18.6315    1.0000 </r>
       <r>  -18.6312    1.0000 </r>
       <r>  -18.6296    1.0000 </r>
       <r>  -18.6277    1.0000 </r>
       <r>  -18.6273    1.0000 </r>
       <r>  -18.6269    1.0000 </r>
       <r>  -18.6251    1.0000 </r>
       <r>  -18.6242    1.0000 </r>
       <r>  -18.6207    1.0000 </r>
       <r>  -18.6199    1.0000 </r>
       <r>  -18.6178    1.0000 </r>
       <r>  -18.6171    1.0000 </r>
       <r>  -18.6153    1.0000 </r>
       <r>  -18.6135    1.0000 </r>
       <r>  -18.5971    1.0000 </r>
       <r>  -18.5705    1.0000 </r>
       <r>  -18.5612    1.0000 </r>
       <r>  -18.5606    1.0000 </r>
       <r>  -18.5559    1.0000 </r>
       <r>  -18.5556    1.0000 </r>
       <r>  -18.5507    1.0000 </r>
       <r>  -18.5504    1.0000 </r>
       <r>  -18.5478    1.0000 </r>
       <r>  -18.5391    1.0000 </r>
       <r>  -18.5374    1.0000 </r>
       <r>  -18.4892    1.0000 </r>
       <r>  -18.4857    1.0000 </r>
       <r>  -18.4846    1.0000 </r>
       <r>  -18.4815    1.0000 </r>
       <r>  -18.4769    1.0000 </r>
       <r>  -18.4734    1.0000 </r>
       <r>  -18.4726    1.0000 </r>
       <r>  -18.4723    1.0000 </r>
       <r>  -18.4718    1.0000 </r>
       <r>  -18.4716    1.0000 </r>
       <r>  -18.4707    1.0000 </r>
       <r>  -18.4701    1.0000 </r>
       <r>  -18.4697    1.0000 </r>
       <r>  -18.4678    1.0000 </r>
       <r>  -18.4669    1.0000 </r>
       <r>  -18.4397    1.0000 </r>
       <r>  -18.4124    1.0000 </r>
       <r>  -18.4039    1.0000 </r>
       <r>  -18.4005    1.0000 </r>
       <r>  -18.3900    1.0000 </r>
       <r>  -18.3863    1.0000 </r>
       <r>  -18.3857    1.0000 </r>
       <r>  -18.3770    1.0000 </r>
       <r>  -18.3732    1.0000 </r>
       <r>  -18.2979    1.0000 </r>
       <r>  -18.2934    1.0000 </r>
       <r>  -18.1828    1.0000 </r>
       <r>  -18.1784    1.0000 </r>
       <r>  -18.1694    1.0000 </r>
       <r>  -18.1650    1.0000 </r>
       <r>  -13.5385    1.0000 </r>
       <r>  -13.4682    1.0000 </r>
       <r>  -12.9076    1.0000 </r>
       <r>  -12.8163    1.0000 </r>
       <r>  -12.7724    1.0000 </r>
       <r>  -12.7610    1.0000 </r>
       <r>  -12.7205    1.0000 </r>
       <r>  -12.6902    1.0000 </r>
       <r>  -12.6746    1.0000 </r>
       <r>  -12.6583    1.0000 </r>
       <r>  -12.6270    1.0000 </r>
       <r>  -12.6074    1.0000 </r>
       <r>  -12.6025    1.0000 </r>
       <r>  -12.5592    1.0000 </r>
       <r>  -11.9594    1.0000 </r>
       <r>  -11.8957    1.0000 </r>
       <r>   -9.3187    1.0000 </r>
       <r>   -9.0241    1.0000 </r>
       <r>   -8.5234    1.0000 </r>
       <r>   -8.4943    1.0000 </r>
       <r>   -8.4770    1.0000 </r>
       <r>   -8.4344    1.0000 </r>
       <r>   -8.3004    1.0000 </r>
       <r>   -8.2751    1.0000 </r>
       <r>   -8.2507    1.0000 </r>
       <r>   -8.2104    1.0000 </r>
       <r>   -8.0199    1.0000 </r>
       <r>   -8.0198    1.0000 </r>
       <r>   -7.9835    1.0000 </r>
       <r>   -7.9823    1.0000 </r>
       <r>   -7.3478    1.0000 </r>
       <r>   -7.3470    1.0000 </r>
       <r>   -6.3660    1.0000 </r>
       <r>   -6.3592    1.0000 </r>
       <r>   -6.3353    1.0000 </r>
       <r>   -6.3287    1.0000 </r>
       <r>   -5.5205    1.0000 </r>
       <r>   -5.4852    1.0000 </r>
       <r>   -5.3551    1.0000 </r>
       <r>   -5.3334    1.0000 </r>
       <r>   -5.3271    1.0000 </r>
       <r>   -5.2420    1.0000 </r>
       <r>   -5.2001    1.0000 </r>
       <r>   -5.1586    1.0000 </r>
       <r>   -5.1170    1.0000 </r>
       <r>   -5.0486    1.0000 </r>
       <r>   -3.7985    1.0000 </r>
       <r>   -3.6455    1.0000 </r>
       <r>   -1.3905    1.0000 </r>
       <r>   -1.3489    1.0000 </r>
       <r>   -1.0612    1.0000 </r>
       <r>   -1.0277    1.0000 </r>
       <r>   -0.5224    1.0000 </r>
       <r>   -0.4974    1.0000 </r>
       <r>   -0.4678    1.0000 </r>
       <r>   -0.4508    1.0000 </r>
       <r>   -0.1701    1.0000 </r>
       <r>   -0.1537    1.0000 </r>
       <r>   -0.1490    1.0000 </r>
       <r>   -0.1277    1.0000 </r>
       <r>    0.0860    1.0000 </r>
       <r>    0.1602    1.0000 </r>
       <r>    0.3688    1.0000 </r>
       <r>    0.4421    1.0000 </r>
       <r>    0.5226    1.0000 </r>
       <r>    0.6038    1.0000 </r>
       <r>    0.6110    1.0000 </r>
       <r>    0.6461    1.0000 </r>
       <r>    0.7100    1.0000 </r>
       <r>    0.7285    1.0000 </r>
       <r>    0.7585    1.0000 </r>
       <r>    0.7652    1.0000 </r>
       <r>    0.8660    1.0000 </r>
       <r>    0.8744    1.0000 </r>
       <r>    0.9355    1.0000 </r>
       <r>    0.9569    1.0000 </r>
       <r>    0.9933    1.0000 </r>
       <r>    1.0136    1.0000 </r>
       <r>    1.0542    1.0000 </r>
       <r>    1.0669    1.0000 </r>
       <r>    1.1419    1.0000 </r>
       <r>    1.1791    1.0000 </r>
       <r>    1.2520    1.0000 </r>
       <r>    1.2938    1.0000 </r>
       <r>    1.3334    1.0000 </r>
       <r>    1.4413    1.0000 </r>
       <r>    1.4670    1.0000 </r>
       <r>    1.4872    1.0000 </r>
       <r>    1.5051    1.0000 </r>
       <r>    1.5417    1.0000 </r>
       <r>    1.5893    1.0000 </r>
       <r>    1.6310    1.0000 </r>
       <r>    1.6585    1.0000 </r>
       <r>    1.7136    1.0000 </r>
       <r>    1.8277    1.0000 </r>
       <r>    1.8470    1.0000 </r>
       <r>    1.8671    1.0000 </r>
       <r>    1.8981    1.0000 </r>
       <r>    1.9359    1.0000 </r>
       <r>    2.0017    1.0000 </r>
       <r>    2.1065    1.0000 </r>
       <r>    2.1466    1.0000 </r>
       <r>    2.2103    1.0000 </r>
       <r>    2.2693    1.0000 </r>
       <r>    2.3570    1.0000 </r>
       <r>    2.3628    1.0000 </r>
       <r>    2.4983    1.0000 </r>
       <r>    2.5362    1.0000 </r>
       <r>    2.5831    1.0000 </r>
       <r>    2.5857    1.0000 </r>
       <r>    2.5976    1.0000 </r>
       <r>    2.6011    1.0000 </r>
       <r>    2.6356    1.0000 </r>
       <r>    2.6387    1.0000 </r>
       <r>    2.6964    1.0000 </r>
       <r>    2.7248    1.0000 </r>
       <r>    2.7426    1.0000 </r>
       <r>    2.7717    1.0000 </r>
       <r>    2.8125    1.0000 </r>
       <r>    2.8295    1.0000 </r>
       <r>    2.8929    1.0000 </r>
       <r>    2.9111    1.0000 </r>
       <r>    2.9289    1.0000 </r>
       <r>    2.9439    1.0000 </r>
       <r>    2.9676    1.0000 </r>
       <r>    3.0497    1.0000 </r>
       <r>    3.0777    1.0000 </r>
       <r>    3.1158    1.0000 </r>
       <r>    3.1514    1.0000 </r>
       <r>    3.1567    1.0000 </r>
       <r>    3.1683    1.0000 </r>
       <r>    3.1748    1.0000 </r>
       <r>    3.1860    1.0000 </r>
       <r>    3.2336    1.0000 </r>
       <r>    3.2527    1.0000 </r>
       <r>    3.3449    1.0000 </r>
       <r>    3.4269    1.0000 </r>
       <r>    3.4536    1.0000 </r>
       <r>    3.5097    1.0000 </r>
       <r>    3.5508    1.0000 </r>
       <r>    4.2030    1.0000 </r>
       <r>    4.2057    1.0000 </r>
       <r>    4.2251    1.0000 </r>
       <r>    4.2350    1.0000 </r>
       <r>    5.0961    0.0000 </r>
       <r>    5.1024    0.0000 </r>
       <r>    5.1376    0.0000 </r>
       <r>    5.1383    0.0000 </r>
       <r>    5.7649    0.0000 </r>
       <r>    5.7730    0.0000 </r>
       <r>    5.8064    0.0000 </r>
       <r>    5.8073    0.0000 </r>
       <r>    6.1112    0.0000 </r>
       <r>    6.1213    0.0000 </r>
       <r>    6.1363    0.0000 </r>
       <r>    6.1655    0.0000 </r>
       <r>    6.2437    0.0000 </r>
       <r>    6.2497    0.0000 </r>
       <r>    6.2719    0.0000 </r>
       <r>    6.2835    0.0000 </r>
       <r>    7.1524    0.0000 </r>
       <r>    7.1994    0.0000 </r>
       <r>    7.2511    0.0000 </r>
       <r>    7.2961    0.0000 </r>
       <r>    7.8137    0.0000 </r>
       <r>    7.8966    0.0000 </r>
       <r>    7.9323    0.0000 </r>
       <r>    7.9749    0.0000 </r>
       <r>    7.9974    0.0000 </r>
       <r>    8.0458    0.0000 </r>
       <r>    8.1369    0.0000 </r>
       <r>    8.1698    0.0000 </r>
       <r>    8.4901    0.0000 </r>
       <r>    8.5418    0.0000 </r>
       <r>    8.6842    0.0000 </r>
       <r>    8.7844    0.0000 </r>
       <r>    8.7945    0.0000 </r>
       <r>    8.9283    0.0000 </r>
       <r>    8.9373    0.0000 </r>
       <r>    8.9991    0.0000 </r>
       <r>    9.0240    0.0000 </r>
       <r>    9.0478    0.0000 </r>
       <r>    9.0566    0.0000 </r>
       <r>    9.1290    0.0000 </r>
       <r>    9.1556    0.0000 </r>
       <r>    9.1755    0.0000 </r>
       <r>    9.2409    0.0000 </r>
       <r>    9.2537    0.0000 </r>
       <r>    9.4622    0.0000 </r>
       <r>    9.6018    0.0000 </r>
      </set>
      <set comment="kpoint 2">
       <r>  -40.2275    1.0000 </r>
       <r>  -40.2180    1.0000 </r>
       <r>  -40.0521    1.0000 </r>
       <r>  -40.0170    1.0000 </r>
       <r>  -39.8500    1.0000 </r>
       <r>  -39.7579    1.0000 </r>
       <r>  -39.6005    1.0000 </r>
       <r>  -39.5573    1.0000 </r>
       <r>  -39.4082    1.0000 </r>
       <r>  -39.3991    1.0000 </r>
       <r>  -18.9235    1.0000 </r>
       <r>  -18.9205    1.0000 </r>
       <r>  -18.8533    1.0000 </r>
       <r>  -18.8511    1.0000 </r>
       <r>  -18.8463    1.0000 </r>
       <r>  -18.8442    1.0000 </r>
       <r>  -18.7497    1.0000 </r>
       <r>  -18.7466    1.0000 </r>
       <r>  -18.7368    1.0000 </r>
       <r>  -18.7344    1.0000 </r>
       <r>  -18.7191    1.0000 </r>
       <r>  -18.7122    1.0000 </r>
       <r>  -18.7080    1.0000 </r>
       <r>  -18.7054    1.0000 </r>
       <r>  -18.7024    1.0000 </r>
       <r>  -18.6958    1.0000 </r>
       <r>  -18.6447    1.0000 </r>
       <r>  -18.6419    1.0000 </r>
       <r>  -18.6413    1.0000 </r>
       <r>  -18.6372    1.0000 </r>
       <r>  -18.6368    1.0000 </r>
       <r>  -18.6368    1.0000 </r>
       <r>  -18.6351    1.0000 </r>
       <r>  -18.6343    1.0000 </r>
       <r>  -18.6328    1.0000 </r>
       <r>  -18.6318    1.0000 </r>
       <r>  -18.6317    1.0000 </r>
       <r>  -18.6302    1.0000 </r>
       <r>  -18.6276    1.0000 </r>
       <r>  -18.6275    1.0000 </r>
       <r>  -18.6264    1.0000 </r>
       <r>  -18.6254    1.0000 </r>
       <r>  -18.6239    1.0000 </r>
       <r>  -18.6208    1.0000 </r>
       <r>  -18.6199    1.0000 </r>
       <r>  -18.6173    1.0000 </r>
       <r>  -18.6169    1.0000 </r>
       <r>  -18.6157    1.0000 </r>
       <r>  -18.6131    1.0000 </r>
       <r>  -18.5971    1.0000 </r>
       <r>  -18.5704    1.0000 </r>
       <r>  -18.5612    1.0000 </r>
       <r>  -18.5606    1.0000 </r>
       <r>  -18.5560    1.0000 </r>
       <r>  -18.5556    1.0000 </r>
       <r>  -18.5507    1.0000 </r>
       <r>  -18.5504    1.0000 </r>
       <r>  -18.5478    1.0000 </r>
       <r>  -18.5391    1.0000 </r>
       <r>  -18.5374    1.0000 </r>
       <r>  -18.4892    1.0000 </r>
       <r>  -18.4857    1.0000 </r>
       <r>  -18.4846    1.0000 </r>
       <r>  -18.4815    1.0000 </r>
       <r>  -18.4769    1.0000 </r>
       <r>  -18.4734    1.0000 </r>
       <r>  -18.4726    1.0000 </r>
       <r>  -18.4723    1.0000 </r>
       <r>  -18.4718    1.0000 </r>
       <r>  -18.4717    1.0000 </r>
       <r>  -18.4708    1.0000 </r>
       <r>  -18.4700    1.0000 </r>
       <r>  -18.4697    1.0000 </r>
       <r>  -18.4678    1.0000 </r>
       <r>  -18.4670    1.0000 </r>
       <r>  -18.4397    1.0000 </r>
       <r>  -18.4124    1.0000 </r>
       <r>  -18.4039    1.0000 </r>
       <r>  -18.4005    1.0000 </r>
       <r>  -18.3900    1.0000 </r>
       <r>  -18.3864    1.0000 </r>
       <r>  -18.3857    1.0000 </r>
       <r>  -18.3770    1.0000 </r>
       <r>  -18.3732    1.0000 </r>
       <r>  -18.2979    1.0000 </r>
       <r>  -18.2934    1.0000 </r>
       <r>  -18.1828    1.0000 </r>
       <r>  -18.1784    1.0000 </r>
       <r>  -18.1694    1.0000 </r>
       <r>  -18.1650    1.0000 </r>
       <r>  -13.5372    1.0000 </r>
       <r>  -13.4696    1.0000 </r>
       <r>  -12.9050    1.0000 </r>
       <r>  -12.8168    1.0000 </r>
       <r>  -12.7687    1.0000 </r>
       <r>  -12.7511    1.0000 </r>
       <r>  -12.7352    1.0000 </r>
       <r>  -12.7196    1.0000 </r>
       <r>  -12.6541    1.0000 </r>
       <r>  -12.6401    1.0000 </r>
       <r>  -12.6268    1.0000 </r>
       <r>  -12.6140    1.0000 </r>
       <r>  -12.6054    1.0000 </r>
       <r>  -12.5602    1.0000 </r>
       <r>  -11.9597    1.0000 </r>
       <r>  -11.8954    1.0000 </r>
       <r>   -9.1117    1.0000 </r>
       <r>   -9.0999    1.0000 </r>
       <r>   -8.8381    1.0000 </r>
       <r>   -8.8233    1.0000 </r>
       <r>   -8.3178    1.0000 </r>
       <r>   -8.3124    1.0000 </r>
       <r>   -8.3078    1.0000 </r>
       <r>   -8.2965    1.0000 </r>
       <r>   -8.1298    1.0000 </r>
       <r>   -8.1249    1.0000 </r>
       <r>   -8.1214    1.0000 </r>
       <r>   -8.1114    1.0000 </r>
       <r>   -7.6828    1.0000 </r>
       <r>   -7.6778    1.0000 </r>
       <r>   -7.5722    1.0000 </r>
       <r>   -7.5684    1.0000 </r>
       <r>   -5.9718    1.0000 </r>
       <r>   -5.9329    1.0000 </r>
       <r>   -5.8816    1.0000 </r>
       <r>   -5.8754    1.0000 </r>
       <r>   -5.8454    1.0000 </r>
       <r>   -5.7705    1.0000 </r>
       <r>   -5.7311    1.0000 </r>
       <r>   -5.7254    1.0000 </r>
       <r>   -5.6329    1.0000 </r>
       <r>   -5.5817    1.0000 </r>
       <r>   -5.4928    1.0000 </r>
       <r>   -5.4772    1.0000 </r>
       <r>   -4.4230    1.0000 </r>
       <r>   -4.4058    1.0000 </r>
       <r>   -4.2567    1.0000 </r>
       <r>   -4.2353    1.0000 </r>
       <r>   -1.1284    1.0000 </r>
       <r>   -1.1229    1.0000 </r>
       <r>   -0.8008    1.0000 </r>
       <r>   -0.7930    1.0000 </r>
       <r>   -0.3854    1.0000 </r>
       <r>   -0.3695    1.0000 </r>
       <r>    0.0074    1.0000 </r>
       <r>    0.0441    1.0000 </r>
       <r>    0.0957    1.0000 </r>
       <r>    0.1245    1.0000 </r>
       <r>    0.1631    1.0000 </r>
       <r>    0.2409    1.0000 </r>
       <r>    0.2583    1.0000 </r>
       <r>    0.2965    1.0000 </r>
       <r>    0.3208    1.0000 </r>
       <r>    0.3420    1.0000 </r>
       <r>    0.5248    1.0000 </r>
       <r>    0.5579    1.0000 </r>
       <r>    0.5845    1.0000 </r>
       <r>    0.5952    1.0000 </r>
       <r>    0.6117    1.0000 </r>
       <r>    0.6421    1.0000 </r>
       <r>    0.6950    1.0000 </r>
       <r>    0.7142    1.0000 </r>
       <r>    0.7430    1.0000 </r>
       <r>    0.8185    1.0000 </r>
       <r>    0.9002    1.0000 </r>
       <r>    0.9482    1.0000 </r>
       <r>    0.9681    1.0000 </r>
       <r>    1.0064    1.0000 </r>
       <r>    1.0891    1.0000 </r>
       <r>    1.1418    1.0000 </r>
       <r>    1.1594    1.0000 </r>
       <r>    1.2288    1.0000 </r>
       <r>    1.2521    1.0000 </r>
       <r>    1.2845    1.0000 </r>
       <r>    1.3241    1.0000 </r>
       <r>    1.3654    1.0000 </r>
       <r>    1.4106    1.0000 </r>
       <r>    1.4312    1.0000 </r>
       <r>    1.4598    1.0000 </r>
       <r>    1.5239    1.0000 </r>
       <r>    1.5547    1.0000 </r>
       <r>    1.5634    1.0000 </r>
       <r>    1.6442    1.0000 </r>
       <r>    1.7199    1.0000 </r>
       <r>    1.7328    1.0000 </r>
       <r>    1.7984    1.0000 </r>
       <r>    1.8115    1.0000 </r>
       <r>    1.8775    1.0000 </r>
       <r>    1.8784    1.0000 </r>
       <r>    1.9323    1.0000 </r>
       <r>    2.0102    1.0000 </r>
       <r>    2.0364    1.0000 </r>
       <r>    2.0713    1.0000 </r>
       <r>    2.1037    1.0000 </r>
       <r>    2.1208    1.0000 </r>
       <r>    2.1640    1.0000 </r>
       <r>    2.1788    1.0000 </r>
       <r>    2.2618    1.0000 </r>
       <r>    2.3316    1.0000 </r>
       <r>    2.3624    1.0000 </r>
       <r>    2.4044    1.0000 </r>
       <r>    2.4242    1.0000 </r>
       <r>    2.5174    1.0000 </r>
       <r>    2.5586    1.0000 </r>
       <r>    2.6007    1.0000 </r>
       <r>    2.6279    1.0000 </r>
       <r>    2.6466    1.0000 </r>
       <r>    2.6799    1.0000 </r>
       <r>    2.7068    1.0000 </r>
       <r>    2.7465    1.0000 </r>
       <r>    2.7645    1.0000 </r>
       <r>    2.7775    1.0000 </r>
       <r>    2.8583    1.0000 </r>
       <r>    2.8789    1.0000 </r>
       <r>    2.9060    1.0000 </r>
       <r>    2.9196    1.0000 </r>
       <r>    2.9305    1.0000 </r>
       <r>    2.9760    1.0000 </r>
       <r>    3.0664    1.0000 </r>
       <r>    3.0907    1.0000 </r>
       <r>    3.1097    1.0000 </r>
       <r>    3.1295    1.0000 </r>
       <r>    3.1970    1.0000 </r>
       <r>    3.2103    1.0000 </r>
       <r>    3.2371    1.0000 </r>
       <r>    3.3301    1.0000 </r>
       <r>    3.5045    1.0000 </r>
       <r>    3.5247    1.0000 </r>
       <r>    3.5344    1.0000 </r>
       <r>    3.5693    1.0000 </r>
       <r>    3.5808    1.0000 </r>
       <r>    3.5941    1.0000 </r>
       <r>    3.6822    1.0000 </r>
       <r>    3.7493    1.0000 </r>
       <r>    5.6874    0.0000 </r>
       <r>    5.6951    0.0000 </r>
       <r>    5.6982    0.0000 </r>
       <r>    5.7028    0.0000 </r>
       <r>    5.7650    0.0000 </r>
       <r>    5.7718    0.0000 </r>
       <r>    5.8005    0.0000 </r>
       <r>    5.8061    0.0000 </r>
       <r>    7.2418    0.0000 </r>
       <r>    7.2544    0.0000 </r>
       <r>    7.2860    0.0000 </r>
       <r>    7.3816    0.0000 </r>
       <r>    7.3950    0.0000 </r>
       <r>    7.4333    0.0000 </r>
       <r>    7.4548    0.0000 </r>
       <r>    7.4621    0.0000 </r>
       <r>    7.4790    0.0000 </r>
       <r>    7.4836    0.0000 </r>
       <r>    7.5160    0.0000 </r>
       <r>    7.5291    0.0000 </r>
       <r>    7.8468    0.0000 </r>
       <r>    7.8596    0.0000 </r>
       <r>    7.8674    0.0000 </r>
       <r>    7.8783    0.0000 </r>
       <r>    7.8904    0.0000 </r>
       <r>    7.8979    0.0000 </r>
       <r>    7.9446    0.0000 </r>
       <r>    7.9726    0.0000 </r>
       <r>    8.0174    0.0000 </r>
       <r>    8.0440    0.0000 </r>
       <r>    8.1037    0.0000 </r>
       <r>    8.1326    0.0000 </r>
       <r>    8.3238    0.0000 </r>
       <r>    8.3368    0.0000 </r>
       <r>    8.4466    0.0000 </r>
       <r>    8.5641    0.0000 </r>
       <r>    8.6703    0.0000 </r>
       <r>    8.6991    0.0000 </r>
       <r>    8.7745    0.0000 </r>
       <r>    8.7792    0.0000 </r>
       <r>    8.8289    0.0000 </r>
       <r>    8.8478    0.0000 </r>
       <r>    8.9386    0.0000 </r>
       <r>    8.9406    0.0000 </r>
       <r>    9.1901    0.0000 </r>
       <r>    9.2192    0.0000 </r>
      </set>
      <set comment="kpoint 3">
       <r>  -40.2275    1.0000 </r>
       <r>  -40.2180    1.0000 </r>
       <r>  -40.0521    1.0000 </r>
       <r>  -40.0170    1.0000 </r>
       <r>  -39.8500    1.0000 </r>
       <r>  -39.7579    1.0000 </r>
       <r>  -39.6005    1.0000 </r>
       <r>  -39.5573    1.0000 </r>
       <r>  -39.4081    1.0000 </r>
       <r>  -39.3991    1.0000 </r>
       <r>  -18.9237    1.0000 </r>
       <r>  -18.9204    1.0000 </r>
       <r>  -18.8533    1.0000 </r>
       <r>  -18.8511    1.0000 </r>
       <r>  -18.8464    1.0000 </r>
       <r>  -18.8442    1.0000 </r>
       <r>  -18.7496    1.0000 </r>
       <r>  -18.7466    1.0000 </r>
       <r>  -18.7368    1.0000 </r>
       <r>  -18.7344    1.0000 </r>
       <r>  -18.7190    1.0000 </r>
       <r>  -18.7121    1.0000 </r>
       <r>  -18.7080    1.0000 </r>
       <r>  -18.7054    1.0000 </r>
       <r>  -18.7024    1.0000 </r>
       <r>  -18.6959    1.0000 </r>
       <r>  -18.6452    1.0000 </r>
       <r>  -18.6428    1.0000 </r>
       <r>  -18.6413    1.0000 </r>
       <r>  -18.6382    1.0000 </r>
       <r>  -18.6370    1.0000 </r>
       <r>  -18.6352    1.0000 </r>
       <r>  -18.6347    1.0000 </r>
       <r>  -18.6343    1.0000 </r>
       <r>  -18.6325    1.0000 </r>
       <r>  -18.6314    1.0000 </r>
       <r>  -18.6313    1.0000 </r>
       <r>  -18.6296    1.0000 </r>
       <r>  -18.6277    1.0000 </r>
       <r>  -18.6273    1.0000 </r>
       <r>  -18.6269    1.0000 </r>
       <r>  -18.6251    1.0000 </r>
       <r>  -18.6242    1.0000 </r>
       <r>  -18.6208    1.0000 </r>
       <r>  -18.6198    1.0000 </r>
       <r>  -18.6179    1.0000 </r>
       <r>  -18.6170    1.0000 </r>
       <r>  -18.6153    1.0000 </r>
       <r>  -18.6135    1.0000 </r>
       <r>  -18.5971    1.0000 </r>
       <r>  -18.5705    1.0000 </r>
       <r>  -18.5612    1.0000 </r>
       <r>  -18.5606    1.0000 </r>
       <r>  -18.5559    1.0000 </r>
       <r>  -18.5556    1.0000 </r>
       <r>  -18.5507    1.0000 </r>
       <r>  -18.5505    1.0000 </r>
       <r>  -18.5478    1.0000 </r>
       <r>  -18.5391    1.0000 </r>
       <r>  -18.5374    1.0000 </r>
       <r>  -18.4892    1.0000 </r>
       <r>  -18.4857    1.0000 </r>
       <r>  -18.4846    1.0000 </r>
       <r>  -18.4815    1.0000 </r>
       <r>  -18.4769    1.0000 </r>
       <r>  -18.4734    1.0000 </r>
       <r>  -18.4726    1.0000 </r>
       <r>  -18.4723    1.0000 </r>
       <r>  -18.4718    1.0000 </r>
       <r>  -18.4716    1.0000 </r>
       <r>  -18.4707    1.0000 </r>
       <r>  -18.4701    1.0000 </r>
       <r>  -18.4697    1.0000 </r>
       <r>  -18.4678    1.0000 </r>
       <r>  -18.4670    1.0000 </r>
       <r>  -18.4397    1.0000 </r>
       <r>  -18.4124    1.0000 </r>
       <r>  -18.4039    1.0000 </r>
       <r>  -18.4005    1.0000 </r>
       <r>  -18.3900    1.0000 </r>
       <r>  -18.3863    1.0000 </r>
       <r>  -18.3857    1.0000 </r>
       <r>  -18.3770    1.0000 </r>
       <r>  -18.3732    1.0000 </r>
       <r>  -18.2979    1.0000 </r>
       <r>  -18.2933    1.0000 </r>
       <r>  -18.1828    1.0000 </r>
       <r>  -18.1784    1.0000 </r>
       <r>  -18.1694    1.0000 </r>
       <r>  -18.1651    1.0000 </r>
       <r>  -13.5383    1.0000 </r>
       <r>  -13.4684    1.0000 </r>
       <r>  -12.9061    1.0000 </r>
       <r>  -12.8165    1.0000 </r>
       <r>  -12.7718    1.0000 </r>
       <r>  -12.7606    1.0000 </r>
       <r>  -12.7204    1.0000 </r>
       <r>  -12.6903    1.0000 </r>
       <r>  -12.6746    1.0000 </r>
       <r>  -12.6582    1.0000 </r>
       <r>  -12.6286    1.0000 </r>
       <r>  -12.6080    1.0000 </r>
       <r>  -12.6030    1.0000 </r>
       <r>  -12.5600    1.0000 </r>
       <r>  -11.9584    1.0000 </r>
       <r>  -11.8973    1.0000 </r>
       <r>   -9.3090    1.0000 </r>
       <r>   -9.0309    1.0000 </r>
       <r>   -8.5416    1.0000 </r>
       <r>   -8.5124    1.0000 </r>
       <r>   -8.4952    1.0000 </r>
       <r>   -8.4515    1.0000 </r>
       <r>   -8.2801    1.0000 </r>
       <r>   -8.2554    1.0000 </r>
       <r>   -8.2300    1.0000 </r>
       <r>   -8.1914    1.0000 </r>
       <r>   -8.0240    1.0000 </r>
       <r>   -8.0237    1.0000 </r>
       <r>   -7.9861    1.0000 </r>
       <r>   -7.9856    1.0000 </r>
       <r>   -7.3505    1.0000 </r>
       <r>   -7.3499    1.0000 </r>
       <r>   -6.3565    1.0000 </r>
       <r>   -6.3496    1.0000 </r>
       <r>   -6.3255    1.0000 </r>
       <r>   -6.3188    1.0000 </r>
       <r>   -5.5370    1.0000 </r>
       <r>   -5.4701    1.0000 </r>
       <r>   -5.3917    1.0000 </r>
       <r>   -5.3786    1.0000 </r>
       <r>   -5.3700    1.0000 </r>
       <r>   -5.2609    1.0000 </r>
       <r>   -5.1454    1.0000 </r>
       <r>   -5.1021    1.0000 </r>
       <r>   -5.0753    1.0000 </r>
       <r>   -5.0008    1.0000 </r>
       <r>   -3.8716    1.0000 </r>
       <r>   -3.5609    1.0000 </r>
       <r>   -1.3217    1.0000 </r>
       <r>   -1.2919    1.0000 </r>
       <r>   -1.1543    1.0000 </r>
       <r>   -1.1054    1.0000 </r>
       <r>   -0.4131    1.0000 </r>
       <r>   -0.3983    1.0000 </r>
       <r>   -0.3926    1.0000 </r>
       <r>   -0.3783    1.0000 </r>
       <r>   -0.3322    1.0000 </r>
       <r>   -0.2894    1.0000 </r>
       <r>   -0.2549    1.0000 </r>
       <r>   -0.2458    1.0000 </r>
       <r>   -0.1482    1.0000 </r>
       <r>    0.0630    1.0000 </r>
       <r>    0.1202    1.0000 </r>
       <r>    0.2481    1.0000 </r>
       <r>    0.2976    1.0000 </r>
       <r>    0.3430    1.0000 </r>
       <r>    0.3915    1.0000 </r>
       <r>    0.4475    1.0000 </r>
       <r>    0.5163    1.0000 </r>
       <r>    0.5995    1.0000 </r>
       <r>    0.7301    1.0000 </r>
       <r>    0.7697    1.0000 </r>
       <r>    0.7905    1.0000 </r>
       <r>    0.8127    1.0000 </r>
       <r>    0.8568    1.0000 </r>
       <r>    0.8824    1.0000 </r>
       <r>    1.0010    1.0000 </r>
       <r>    1.1249    1.0000 </r>
       <r>    1.2201    1.0000 </r>
       <r>    1.2252    1.0000 </r>
       <r>    1.2473    1.0000 </r>
       <r>    1.3455    1.0000 </r>
       <r>    1.3651    1.0000 </r>
       <r>    1.3995    1.0000 </r>
       <r>    1.5019    1.0000 </r>
       <r>    1.5224    1.0000 </r>
       <r>    1.5954    1.0000 </r>
       <r>    1.6047    1.0000 </r>
       <r>    1.6503    1.0000 </r>
       <r>    1.7168    1.0000 </r>
       <r>    1.7648    1.0000 </r>
       <r>    1.7827    1.0000 </r>
       <r>    1.8271    1.0000 </r>
       <r>    1.8788    1.0000 </r>
       <r>    1.8981    1.0000 </r>
       <r>    1.9085    1.0000 </r>
       <r>    1.9556    1.0000 </r>
       <r>    2.0184    1.0000 </r>
       <r>    2.0627    1.0000 </r>
       <r>    2.0941    1.0000 </r>
       <r>    2.1512    1.0000 </r>
       <r>    2.1764    1.0000 </r>
       <r>    2.2221    1.0000 </r>
       <r>    2.3518    1.0000 </r>
       <r>    2.4633    1.0000 </r>
       <r>    2.4732    1.0000 </r>
       <r>    2.5210    1.0000 </r>
       <r>    2.5362    1.0000 </r>
       <r>    2.5692    1.0000 </r>
       <r>    2.5788    1.0000 </r>
       <r>    2.5891    1.0000 </r>
       <r>    2.5920    1.0000 </r>
       <r>    2.5960    1.0000 </r>
       <r>    2.6159    1.0000 </r>
       <r>    2.6402    1.0000 </r>
       <r>    2.6622    1.0000 </r>
       <r>    2.7519    1.0000 </r>
       <r>    2.7852    1.0000 </r>
       <r>    2.7963    1.0000 </r>
       <r>    2.8347    1.0000 </r>
       <r>    2.8531    1.0000 </r>
       <r>    2.8678    1.0000 </r>
       <r>    2.9129    1.0000 </r>
       <r>    2.9461    1.0000 </r>
       <r>    2.9691    1.0000 </r>
       <r>    2.9992    1.0000 </r>
       <r>    3.0182    1.0000 </r>
       <r>    3.0702    1.0000 </r>
       <r>    3.0768    1.0000 </r>
       <r>    3.0971    1.0000 </r>
       <r>    3.1327    1.0000 </r>
       <r>    3.2880    1.0000 </r>
       <r>    3.3441    1.0000 </r>
       <r>    3.3829    1.0000 </r>
       <r>    3.4219    1.0000 </r>
       <r>    3.4291    1.0000 </r>
       <r>    3.4659    1.0000 </r>
       <r>    3.4937    1.0000 </r>
       <r>    3.5274    1.0000 </r>
       <r>    3.5797    1.0000 </r>
       <r>    4.2516    1.0000 </r>
       <r>    4.2541    1.0000 </r>
       <r>    4.2786    1.0000 </r>
       <r>    4.2832    1.0000 </r>
       <r>    5.1672    0.0000 </r>
       <r>    5.1700    0.0000 </r>
       <r>    5.2022    0.0000 </r>
       <r>    5.2060    0.0000 </r>
       <r>    5.7756    0.0000 </r>
       <r>    5.7799    0.0000 </r>
       <r>    5.8133    0.0000 </r>
       <r>    5.8151    0.0000 </r>
       <r>    6.1670    0.0000 </r>
       <r>    6.1771    0.0000 </r>
       <r>    6.1905    0.0000 </r>
       <r>    6.2091    0.0000 </r>
       <r>    6.2570    0.0000 </r>
       <r>    6.2592    0.0000 </r>
       <r>    6.2824    0.0000 </r>
       <r>    6.3006    0.0000 </r>
       <r>    6.8084    0.0000 </r>
       <r>    6.9115    0.0000 </r>
       <r>    6.9819    0.0000 </r>
       <r>    7.0465    0.0000 </r>
       <r>    7.2470    0.0000 </r>
       <r>    7.3867    0.0000 </r>
       <r>    7.4553    0.0000 </r>
       <r>    7.5001    0.0000 </r>
       <r>    7.7736    0.0000 </r>
       <r>    7.8371    0.0000 </r>
       <r>    7.9439    0.0000 </r>
       <r>    7.9939    0.0000 </r>
       <r>    8.0061    0.0000 </r>
       <r>    8.3134    0.0000 </r>
       <r>    8.3470    0.0000 </r>
       <r>    8.4857    0.0000 </r>
       <r>    8.7113    0.0000 </r>
       <r>    8.8031    0.0000 </r>
       <r>    8.8991    0.0000 </r>
       <r>    8.9553    0.0000 </r>
       <r>    9.0320    0.0000 </r>
       <r>    9.0643    0.0000 </r>
       <r>    9.0782    0.0000 </r>
       <r>    9.0901    0.0000 </r>
       <r>    9.1252    0.0000 </r>
       <r>    9.1521    0.0000 </r>
       <r>    9.1889    0.0000 </r>
       <r>    9.2121    0.0000 </r>
       <r>    9.5046    0.0000 </r>
       <r>    9.6070    0.0000 </r>
      </set>
      <set comment="kpoint 4">
       <r>  -40.2275    1.0000 </r>
       <r>  -40.2180    1.0000 </r>
       <r>  -40.0521    1.0000 </r>
       <r>  -40.0170    1.0000 </r>
       <r>  -39.8500    1.0000 </r>
       <r>  -39.7579    1.0000 </r>
       <r>  -39.6005    1.0000 </r>
       <r>  -39.5573    1.0000 </r>
       <r>  -39.4081    1.0000 </r>
       <r>  -39.3991    1.0000 </r>
       <r>  -18.9236    1.0000 </r>
       <r>  -18.9204    1.0000 </r>
       <r>  -18.8533    1.0000 </r>
       <r>  -18.8511    1.0000 </r>
       <r>  -18.8463    1.0000 </r>
       <r>  -18.8442    1.0000 </r>
       <r>  -18.7496    1.0000 </r>
       <r>  -18.7466    1.0000 </r>
       <r>  -18.7368    1.0000 </r>
       <r>  -18.7344    1.0000 </r>
       <r>  -18.7191    1.0000 </r>
       <r>  -18.7122    1.0000 </r>
       <r>  -18.7080    1.0000 </r>
       <r>  -18.7054    1.0000 </r>
       <r>  -18.7024    1.0000 </r>
       <r>  -18.6958    1.0000 </r>
       <r>  -18.6447    1.0000 </r>
       <r>  -18.6419    1.0000 </r>
       <r>  -18.6413    1.0000 </r>
       <r>  -18.6371    1.0000 </r>
       <r>  -18.6368    1.0000 </r>
       <r>  -18.6368    1.0000 </r>
       <r>  -18.6351    1.0000 </r>
       <r>  -18.6343    1.0000 </r>
       <r>  -18.6328    1.0000 </r>
       <r>  -18.6319    1.0000 </r>
       <r>  -18.6316    1.0000 </r>
       <r>  -18.6302    1.0000 </r>
       <r>  -18.6276    1.0000 </r>
       <r>  -18.6275    1.0000 </r>
       <r>  -18.6264    1.0000 </r>
       <r>  -18.6254    1.0000 </r>
       <r>  -18.6239    1.0000 </r>
       <r>  -18.6209    1.0000 </r>
       <r>  -18.6199    1.0000 </r>
       <r>  -18.6175    1.0000 </r>
       <r>  -18.6167    1.0000 </r>
       <r>  -18.6156    1.0000 </r>
       <r>  -18.6131    1.0000 </r>
       <r>  -18.5971    1.0000 </r>
       <r>  -18.5704    1.0000 </r>
       <r>  -18.5611    1.0000 </r>
       <r>  -18.5606    1.0000 </r>
       <r>  -18.5560    1.0000 </r>
       <r>  -18.5556    1.0000 </r>
       <r>  -18.5507    1.0000 </r>
       <r>  -18.5505    1.0000 </r>
       <r>  -18.5478    1.0000 </r>
       <r>  -18.5391    1.0000 </r>
       <r>  -18.5374    1.0000 </r>
       <r>  -18.4892    1.0000 </r>
       <r>  -18.4857    1.0000 </r>
[...]
       <r>    8.8713    0.0000 </r>
       <r>    8.8871    0.0000 </r>
       <r>    8.9061    0.0000 </r>
       <r>    8.9180    0.0000 </r>
       <r>    8.9313    0.0000 </r>
      </set>
     </set>
    </set>
   </array>
  </eigenvalues>
  <separator name="orbital magnetization" >
   <v name="MAGDIPOLOUT">      0.00000000      0.00000000      0.00000000</v>
  </separator>
  <dos>
   <i name="efermi">      4.28717246 </i>
   <total>
    <array>
     <dimension dim="1">gridpoints</dimension>
     <dimension dim="2">spin</dimension>
     <field>energy</field>
     <field>total</field>
     <field>integrated</field>
     <set>
      <set comment="spin 1">
       <r>   -42.7192     0.0000     0.0000 </r>
       <r>   -42.5365     0.0000     0.0000 </r>
       <r>   -42.3538     0.0000     0.0000 </r>
       <r>   -42.1710     0.0000     0.0000 </r>
       <r>   -41.9883     0.0000     0.0000 </r>
       <r>   -41.8056     0.0000     0.0000 </r>
       <r>   -41.6229     0.0000     0.0000 </r>
       <r>   -41.4401     0.0000     0.0000 </r>
       <r>   -41.2574     0.0000     0.0000 </r>
       <r>   -41.0747     0.0000     0.0000 </r>
       <r>   -40.8920     0.0000     0.0000 </r>
       <r>   -40.7092     0.0000     0.0000 </r>
       <r>   -40.5265     0.0000     0.0000 </r>
       <r>   -40.3438     0.0000     0.0000 </r>
       <r>   -40.1610     0.0000     4.0000 </r>
       <r>   -39.9783     0.0000     8.0000 </r>
       <r>   -39.7956     0.0000    10.0000 </r>
       <r>   -39.6129     0.0000    12.0000 </r>
       <r>   -39.4301     0.0000    16.0000 </r>
       <r>   -39.2474     0.0000    20.0000 </r>
       <r>   -39.0647     0.0000    20.0000 </r>
       <r>   -38.8820     0.0000    20.0000 </r>
       <r>   -38.6992     0.0000    20.0000 </r>
       <r>   -38.5165     0.0000    20.0000 </r>
       <r>   -38.3338     0.0000    20.0000 </r>
       <r>   -38.1511     0.0000    20.0000 </r>
       <r>   -37.9683     0.0000    20.0000 </r>
       <r>   -37.7856     0.0000    20.0000 </r>
       <r>   -37.6029     0.0000    20.0000 </r>
       <r>   -37.4201     0.0000    20.0000 </r>
       <r>   -37.2374     0.0000    20.0000 </r>
       <r>   -37.0547     0.0000    20.0000 </r>
       <r>   -36.8720     0.0000    20.0000 </r>
       <r>   -36.6892     0.0000    20.0000 </r>
       <r>   -36.5065     0.0000    20.0000 </r>
       <r>   -36.3238     0.0000    20.0000 </r>
       <r>   -36.1411     0.0000    20.0000 </r>
       <r>   -35.9583     0.0000    20.0000 </r>
       <r>   -35.7756     0.0000    20.0000 </r>
       <r>   -35.5929     0.0000    20.0000 </r>
       <r>   -35.4102     0.0000    20.0000 </r>
       <r>   -35.2274     0.0000    20.0000 </r>
       <r>   -35.0447     0.0000    20.0000 </r>
       <r>   -34.8620     0.0000    20.0000 </r>
       <r>   -34.6793     0.0000    20.0000 </r>
       <r>   -34.4965     0.0000    20.0000 </r>
       <r>   -34.3138     0.0000    20.0000 </r>
       <r>   -34.1311     0.0000    20.0000 </r>
       <r>   -33.9483     0.0000    20.0000 </r>
       <r>   -33.7656     0.0000    20.0000 </r>
       <r>   -33.5829     0.0000    20.0000 </r>
       <r>   -33.4002     0.0000    20.0000 </r>
       <r>   -33.2174     0.0000    20.0000 </r>
       <r>   -33.0347     0.0000    20.0000 </r>
       <r>   -32.8520     0.0000    20.0000 </r>
       <r>   -32.6693     0.0000    20.0000 </r>
       <r>   -32.4865     0.0000    20.0000 </r>
       <r>   -32.3038     0.0000    20.0000 </r>
       <r>   -32.1211     0.0000    20.0000 </r>
       <r>   -31.9384     0.0000    20.0000 </r>
       <r>   -31.7556     0.0000    20.0000 </r>
       <r>   -31.5729     0.0000    20.0000 </r>
       <r>   -31.3902     0.0000    20.0000 </r>
       <r>   -31.2074     0.0000    20.0000 </r>
       <r>   -31.0247     0.0000    20.0000 </r>
       <r>   -30.8420     0.0000    20.0000 </r>
       <r>   -30.6593     0.0000    20.0000 </r>
       <r>   -30.4765     0.0000    20.0000 </r>
       <r>   -30.2938     0.0000    20.0000 </r>
       <r>   -30.1111     0.0000    20.0000 </r>
       <r>   -29.9284     0.0000    20.0000 </r>
       <r>   -29.7456     0.0000    20.0000 </r>
       <r>   -29.5629     0.0000    20.0000 </r>
       <r>   -29.3802     0.0000    20.0000 </r>
       <r>   -29.1975     0.0000    20.0000 </r>
       <r>   -29.0147     0.0000    20.0000 </r>
       <r>   -28.8320     0.0000    20.0000 </r>
       <r>   -28.6493     0.0000    20.0000 </r>
       <r>   -28.4666     0.0000    20.0000 </r>
       <r>   -28.2838     0.0000    20.0000 </r>
       <r>   -28.1011     0.0000    20.0000 </r>
       <r>   -27.9184     0.0000    20.0000 </r>
       <r>   -27.7356     0.0000    20.0000 </r>
       <r>   -27.5529     0.0000    20.0000 </r>
       <r>   -27.3702     0.0000    20.0000 </r>
       <r>   -27.1875     0.0000    20.0000 </r>
       <r>   -27.0047     0.0000    20.0000 </r>
       <r>   -26.8220     0.0000    20.0000 </r>
       <r>   -26.6393     0.0000    20.0000 </r>
       <r>   -26.4566     0.0000    20.0000 </r>
       <r>   -26.2738     0.0000    20.0000 </r>
       <r>   -26.0911     0.0000    20.0000 </r>
       <r>   -25.9084     0.0000    20.0000 </r>
       <r>   -25.7257     0.0000    20.0000 </r>
       <r>   -25.5429     0.0000    20.0000 </r>
       <r>   -25.3602     0.0000    20.0000 </r>
       <r>   -25.1775     0.0000    20.0000 </r>
       <r>   -24.9947     0.0000    20.0000 </r>
       <r>   -24.8120     0.0000    20.0000 </r>
       <r>   -24.6293     0.0000    20.0000 </r>
       <r>   -24.4466     0.0000    20.0000 </r>
       <r>   -24.2638     0.0000    20.0000 </r>
       <r>   -24.0811     0.0000    20.0000 </r>
       <r>   -23.8984     0.0000    20.0000 </r>
       <r>   -23.7157     0.0000    20.0000 </r>
       <r>   -23.5329     0.0000    20.0000 </r>
       <r>   -23.3502     0.0000    20.0000 </r>
       <r>   -23.1675     0.0000    20.0000 </r>
       <r>   -22.9848     0.0000    20.0000 </r>
       <r>   -22.8020     0.0000    20.0000 </r>
       <r>   -22.6193     0.0000    20.0000 </r>
       <r>   -22.4366     0.0000    20.0000 </r>
       <r>   -22.2538     0.0000    20.0000 </r>
       <r>   -22.0711     0.0000    20.0000 </r>
       <r>   -21.8884     0.0000    20.0000 </r>
       <r>   -21.7057     0.0000    20.0000 </r>
       <r>   -21.5229     0.0000    20.0000 </r>
       <r>   -21.3402     0.0000    20.0000 </r>
       <r>   -21.1575     0.0000    20.0000 </r>
       <r>   -20.9748     0.0000    20.0000 </r>
       <r>   -20.7920     0.0000    20.0000 </r>
       <r>   -20.6093     0.0000    20.0000 </r>
       <r>   -20.4266     0.0000    20.0000 </r>
       <r>   -20.2439     0.0000    20.0000 </r>
       <r>   -20.0611     0.0000    20.0000 </r>
       <r>   -19.8784     0.0000    20.0000 </r>
       <r>   -19.6957     0.0000    20.0000 </r>
       <r>   -19.5130     0.0000    20.0000 </r>
       <r>   -19.3302     0.0000    20.0000 </r>
       <r>   -19.1475     0.0000    20.0000 </r>
       <r>   -18.9648     0.0000    20.0000 </r>
       <r>   -18.7820     0.0000    32.0000 </r>
       <r>   -18.5993     0.0000    98.0000 </r>
       <r>   -18.4166     0.0000   152.0000 </r>
       <r>   -18.2339     0.0000   172.0000 </r>
       <r>   -18.0511     0.0000   180.0000 </r>
       <r>   -17.8684     0.0000   180.0000 </r>
       <r>   -17.6857     0.0000   180.0000 </r>
       <r>   -17.5030     0.0000   180.0000 </r>
       <r>   -17.3202     0.0000   180.0000 </r>
       <r>   -17.1375     0.0000   180.0000 </r>
       <r>   -16.9548     0.0000   180.0000 </r>
       <r>   -16.7721     0.0000   180.0000 </r>
       <r>   -16.5893     0.0000   180.0000 </r>
       <r>   -16.4066     0.0000   180.0000 </r>
       <r>   -16.2239     0.0000   180.0000 </r>
       <r>   -16.0411     0.0000   180.0000 </r>
       <r>   -15.8584     0.0000   180.0000 </r>
       <r>   -15.6757     0.0000   180.0000 </r>
       <r>   -15.4930     0.0000   180.0000 </r>
       <r>   -15.3102     0.0000   180.0000 </r>
       <r>   -15.1275     0.0000   180.0000 </r>
       <r>   -14.9448     0.0000   180.0000 </r>
       <r>   -14.7621     0.0000   180.0000 </r>
       <r>   -14.5793     0.0000   180.0000 </r>
       <r>   -14.3966     0.0000   180.0000 </r>
       <r>   -14.2139     0.0000   180.0000 </r>
       <r>   -14.0312     0.0000   180.0000 </r>
       <r>   -13.8484     0.0000   180.0000 </r>
       <r>   -13.6657     0.0000   180.0000 </r>
       <r>   -13.4830     0.0000   182.0000 </r>
       <r>   -13.3003     0.0000   184.0000 </r>
       <r>   -13.1175     0.0000   184.0000 </r>
       <r>   -12.9348     0.0000   184.0000 </r>
       <r>   -12.7521   136.8640   191.0965 </r>
       <r>   -12.5693     0.0000   206.0000 </r>
       <r>   -12.3866     0.0000   208.0000 </r>
       <r>   -12.2039     0.0000   208.0000 </r>
       <r>   -12.0212     0.0000   208.0000 </r>
       <r>   -11.8384     0.0000   212.0000 </r>
       <r>   -11.6557     0.0000   212.0000 </r>
       <r>   -11.4730     0.0000   212.0000 </r>
       <r>   -11.2903     0.0000   212.0000 </r>
       <r>   -11.1075     0.0000   212.0000 </r>
       <r>   -10.9248     0.0000   212.0000 </r>
       <r>   -10.7421     0.0000   212.0000 </r>
       <r>   -10.5594     0.0000   212.0000 </r>
       <r>   -10.3766     0.0000   212.0000 </r>
       <r>   -10.1939     0.0000   212.0000 </r>
       <r>   -10.0112     0.0000   212.0000 </r>
       <r>    -9.8284     0.0000   212.0000 </r>
       <r>    -9.6457     0.0000   212.0000 </r>
       <r>    -9.4630     0.0000   212.0000 </r>
       <r>    -9.2803     2.4995   212.0423 </r>
       <r>    -9.0975    10.2969   213.5258 </r>
       <r>    -8.9148     0.0000   216.0000 </r>
       <r>    -8.7321    14.6901   218.4059 </r>
       <r>    -8.5494    13.4027   220.7605 </r>
       <r>    -8.3666    28.7695   225.1422 </r>
       <r>    -8.1839    19.4506   228.3958 </r>
       <r>    -8.0012    25.7336   233.0002 </r>
       <r>    -7.8185    16.9365   236.8029 </r>
       <r>    -7.6357     0.7546   239.9989 </r>
       <r>    -7.4530    11.8643   243.3815 </r>
       <r>    -7.2703     0.0000   244.0000 </r>
       <r>    -7.0876     0.0000   244.0000 </r>
       <r>    -6.9048     0.0000   244.0000 </r>
       <r>    -6.7221     0.0000   244.0000 </r>
       <r>    -6.5394     0.0000   244.0000 </r>
       <r>    -6.3566     0.1565   244.0005 </r>
       <r>    -6.1739    17.0878   245.4864 </r>
       <r>    -5.9912    19.3970   249.9121 </r>
       <r>    -5.8085    19.5964   253.2897 </r>
       <r>    -5.6257    22.9830   258.0350 </r>
       <r>    -5.4430    22.2948   261.9788 </r>
       <r>    -5.2603    17.2207   265.6425 </r>
       <r>    -5.0776     5.6296   267.7384 </r>
       <r>    -4.8948     6.9248   268.6020 </r>
       <r>    -4.7121     8.0557   269.9883 </r>
       <r>    -4.5294    10.3252   271.6988 </r>
       <r>    -4.3467     5.8996   273.1323 </r>
       <r>    -4.1639     7.0564   274.3887 </r>
       <r>    -3.9812     4.0418   275.4154 </r>
       <r>    -3.7985     1.2717   275.8739 </r>
       <r>    -3.6157     0.1158   275.9979 </r>
       <r>    -3.4330     0.0000   276.0000 </r>
       <r>    -3.2503     0.0000   276.0000 </r>
       <r>    -3.0676     0.0000   276.0000 </r>
       <r>    -2.8848     0.0000   276.0000 </r>
       <r>    -2.7021     0.0000   276.0000 </r>
       <r>    -2.5194     0.0000   276.0000 </r>
       <r>    -2.3367     0.0000   276.0000 </r>
       <r>    -2.1539     0.0000   276.0000 </r>
       <r>    -1.9712     0.0000   276.0000 </r>
       <r>    -1.7885     0.0000   276.0000 </r>
       <r>    -1.6058     0.0000   276.0000 </r>
       <r>    -1.4230     0.0000   276.0000 </r>
       <r>    -1.2403     5.5486   276.2995 </r>
       <r>    -1.0576     9.7430   277.8087 </r>
       <r>    -0.8749    13.5960   280.0716 </r>
       <r>    -0.6921     8.9309   282.1461 </r>
       <r>    -0.5094     4.7998   283.3917 </r>
       <r>    -0.3267    21.5349   285.8371 </r>
       <r>    -0.1439    29.4038   290.1527 </r>
       <r>     0.0388    37.0057   297.2986 </r>
       <r>     0.2215    30.7433   303.1769 </r>
       <r>     0.4042    37.9089   309.8651 </r>
       <r>     0.5870    43.5310   317.3009 </r>
       <r>     0.7697    30.6733   323.8982 </r>
       <r>     0.9524    31.0733   330.4385 </r>
       <r>     1.1351    49.0235   338.3506 </r>
       <r>     1.3179    49.2291   347.3221 </r>
       <r>     1.5006    46.9791   356.0821 </r>
       <r>     1.6833    44.0678   365.1462 </r>
       <r>     1.8660    49.9375   374.2742 </r>
       <r>     2.0488    45.8872   381.7053 </r>
       <r>     2.2315    41.5260   390.1312 </r>
       <r>     2.4142    52.2604   397.9801 </r>
       <r>     2.5970    63.5316   409.4026 </r>
       <r>     2.7797    71.5616   421.0088 </r>
       <r>     2.9624    73.8851   432.7494 </r>
       <r>     3.1451    48.9617   444.6966 </r>
       <r>     3.3279    27.8212   451.7648 </r>
       <r>     3.5106    43.3866   458.3684 </r>
       <r>     3.6933    19.0580   463.2050 </r>
       <r>     3.8760    11.0604   465.9563 </r>
       <r>     4.0588     5.5770   467.4764 </r>
       <r>     4.2415     0.2905   467.9963 </r>
       <r>     4.4242     0.0000   468.0000 </r>
       <r>     4.6069     0.0000   468.0000 </r>
       <r>     4.7897     0.0000   468.0000 </r>
       <r>     4.9724     0.0000   468.0000 </r>
       <r>     5.1551     0.2862   468.0051 </r>
       <r>     5.3378     4.0463   468.3860 </r>
       <r>     5.5206     8.0099   469.4873 </r>
       <r>     5.7033     9.1375   471.1619 </r>
       <r>     5.8860    20.0665   474.9510 </r>
       <r>     6.0688    12.6370   477.6070 </r>
       <r>     6.2515    11.4807   479.7621 </r>
       <r>     6.4342    13.0425   481.9903 </r>
       <r>     6.6169    14.7492   484.5298 </r>
       <r>     6.7997    16.4441   487.3795 </r>
       <r>     6.9824    18.8040   490.5720 </r>
       <r>     7.1651    26.2982   494.5648 </r>
       <r>     7.3478    38.3139   500.5754 </r>
       <r>     7.5306    27.1561   508.1099 </r>
       <r>     7.7133    32.8406   512.8565 </r>
       <r>     7.8960    47.7056   520.8084 </r>
       <r>     8.0787    29.8837   528.9997 </r>
       <r>     8.2615    19.7744   533.2197 </r>
       <r>     8.4442    19.5148   536.6668 </r>
       <r>     8.6269    26.0820   540.7696 </r>
       <r>     8.8097    38.5309   545.7856 </r>
       <r>     8.9924    33.6922   553.8059 </r>
       <r>     9.1751    12.5174   557.9216 </r>
       <r>     9.3578     5.5154   559.4337 </r>
       <r>     9.5406     0.9381   559.9700 </r>
       <r>     9.7233     0.0000   560.0000 </r>
       <r>     9.9060     0.0000   560.0000 </r>
       <r>    10.0887     0.0000   560.0000 </r>
       <r>    10.2715     0.0000   560.0000 </r>
       <r>    10.4542     0.0000   560.0000 </r>
       <r>    10.6369     0.0000   560.0000 </r>
       <r>    10.8196     0.0000   560.0000 </r>
       <r>    11.0024     0.0000   560.0000 </r>
       <r>    11.1851     0.0000   560.0000 </r>
       <r>    11.3678     0.0000   560.0000 </r>
       <r>    11.5506     0.0000   560.0000 </r>
       <r>    11.7333     0.0000   560.0000 </r>
       <r>    11.9160     0.0000   560.0000 </r>
       <r>    12.0987     0.0000   560.0000 </r>
      </set>
     </set>
    </array>
   </total>
  </dos>
 </calculation>
 <structure name="finalpos" >
  <crystal>
   <varray name="basis" >
    <v>      11.17850000       0.00000000       0.00000000 </v>
    <v>       0.00000000       9.57460000       0.00000000 </v>
    <v>       0.00000000       0.00000000      11.18240000 </v>
   </varray>
   <i name="volume">   1196.84853820 </i>
   <varray name="rec_basis" >
    <v>       0.08945744       0.00000000       0.00000000 </v>
    <v>       0.00000000       0.10444301       0.00000000 </v>
    <v>       0.00000000       0.00000000       0.08942624 </v>
   </varray>
  </crystal>
  <varray name="positions" >
   <v>       0.37539000       0.00017000       0.43687000 </v>
   <v>       0.12461000       0.99984000       0.18687000 </v>
   <v>       0.62539000       0.99984000       0.43687000 </v>
   <v>       0.87539000       0.00017000       0.43687000 </v>
   <v>       0.87461000       0.00017000       0.18687000 </v>
   <v>       0.12539000       0.99984000       0.93687000 </v>
   <v>       0.37461000       0.00017000       0.68687000 </v>
   <v>       0.87539000       0.00017000       0.93687000 </v>
   <v>       0.62461000       0.99984000       0.68687000 </v>
   <v>       0.87461000       0.00017000       0.68687000 </v>
   <v>       0.37461000       0.00017000       0.18687000 </v>
   <v>       0.12461000       0.99984000       0.68687000 </v>
   <v>       0.62539000       0.99984000       0.93687000 </v>
   <v>       0.00013000       0.29519000       0.06281000 </v>
   <v>       0.25013000       0.70481000       0.06281000 </v>
   <v>       0.24987000       0.29519000       0.31282000 </v>
   <v>       0.49987000       0.70481000       0.31282000 </v>
   <v>       0.50013000       0.29519000       0.06281000 </v>
   <v>       0.75013000       0.70481000       0.06281000 </v>
   <v>       0.74987000       0.29519000       0.31282000 </v>
   <v>       0.99987000       0.70481000       0.31282000 </v>
   <v>       0.00013000       0.29519000       0.56281000 </v>
   <v>       0.25013000       0.70481000       0.56281000 </v>
   <v>       0.24987000       0.29519000       0.81282000 </v>
   <v>       0.49987000       0.70481000       0.81282000 </v>
   <v>       0.50013000       0.29519000       0.56281000 </v>
   <v>       0.75013000       0.70481000       0.56281000 </v>
   <v>       0.74987000       0.29519000       0.81282000 </v>
   <v>       0.99987000       0.70481000       0.81282000 </v>
   <v>       0.25005000       0.32677000       0.06286000 </v>
   <v>       0.00005000       0.67323000       0.06286000 </v>
   <v>       0.49995000       0.32677000       0.31286000 </v>
   <v>       0.24995000       0.67323000       0.31286000 </v>
   <v>       0.75005000       0.32677000       0.06286000 </v>
   <v>       0.50005000       0.67323000       0.06286000 </v>
   <v>       0.99995000       0.32677000       0.31286000 </v>
   <v>       0.74995000       0.67323000       0.31286000 </v>
   <v>       0.25005000       0.32677000       0.56286000 </v>
   <v>       0.00005000       0.67323000       0.56286000 </v>
   <v>       0.49995000       0.32677000       0.81286000 </v>
   <v>       0.24995000       0.67323000       0.81286000 </v>
   <v>       0.75005000       0.32677000       0.56286000 </v>
   <v>       0.50005000       0.67323000       0.56286000 </v>
   <v>       0.99995000       0.32677000       0.81286000 </v>
   <v>       0.74995000       0.67323000       0.81286000 </v>
   <v>       0.49987000       0.07798000       0.06246000 </v>
   <v>       0.24987000       0.92202000       0.06246000 </v>
   <v>       0.25013000       0.07798000       0.31246000 </v>
   <v>       0.00013000       0.92202000       0.31246000 </v>
   <v>       0.99987000       0.07798000       0.06246000 </v>
   <v>       0.74987000       0.92202000       0.06246000 </v>
   <v>       0.75013000       0.07798000       0.31246000 </v>
   <v>       0.50013000       0.92202000       0.31246000 </v>
   <v>       0.49987000       0.07798000       0.56246000 </v>
   <v>       0.24987000       0.92202000       0.56246000 </v>
   <v>       0.25013000       0.07798000       0.81246000 </v>
   <v>       0.00013000       0.92202000       0.81246000 </v>
   <v>       0.99987000       0.07798000       0.56246000 </v>
   <v>       0.74987000       0.92202000       0.56246000 </v>
   <v>       0.75013000       0.07798000       0.81246000 </v>
   <v>       0.50013000       0.92202000       0.81246000 </v>
  </varray>
 </structure>
</modeling>
