<?xml version="1.0" encoding="ISO-8859-1"?>
<modeling>
 <generator>
  <i name="program" type="string">vasp </i>
  <i name="version" type="string">5.4.4.18Apr17-6-g9f103f2a35  </i>
  <i name="subversion" type="string">(build Jul 31 2017 11:33:29) complex            parallel </i>
  <i name="platform" type="string">LinuxIFC </i>
  <i name="date" type="string">2021 09 29 </i>
  <i name="time" type="string">01:06:04 </i>
 </generator>
 <incar>
  <i type="string" name="SYSTEM"> La2O2S</i>
  <i type="string" name="PREC">normal</i>
  <i type="int" name="NELMIN">     4</i>
  <i type="int" name="IBRION">     2</i>
  <i type="int" name="NFREE">    10</i>
  <i name="EDIFF">      0.00000100</i>
  <i name="EDIFFG">     -0.01000000</i>
  <i type="int" name="NSW">     1</i>
  <i type="int" name="ISIF">     2</i>
  <i name="ENCUT">    600.00000000</i>
  <i name="ENAUG">    900.00000000</i>
  <i type="int" name="ISMEAR">    -5</i>
  <i type="logical" name="LWAVE"> F  </i>
  <i type="logical" name="LCHARG"> F  </i>
  <v type="int" name="KPOINT_BSE">    -1     0     0     0</v>
 </incar>
 <structure name="primitive_cell" >
  <crystal>
   <varray name="basis" >
    <v>      11.17850000       0.00000000       0.00000000 </v>
    <v>       0.00000000       9.57460000       0.00000000 </v>
    <v>       0.00000000       0.00000000      11.18240000 </v>
   </varray>
   <i name="volume">   1196.84853820 </i>
   <varray name="rec_basis" >
    <v>       0.08945744       0.00000000       0.00000000 </v>
    <v>       0.00000000       0.10444301       0.00000000 </v>
    <v>       0.00000000       0.00000000       0.08942624 </v>
   </varray>
  </crystal>
  <varray name="positions" >
   <v>       0.37539000       0.00017000       0.43687000 </v>
   <v>      -0.49987000      -0.07798000       0.31246000 </v>
   <v>       0.25013000       0.07798000       0.31246000 </v>
   <v>       0.49987000       0.07798000      -0.43754000 </v>
   <v>       0.24987000      -0.07798000      -0.43754000 </v>
   <v>      -0.37461000      -0.00016000       0.43687000 </v>
   <v>       0.37461000       0.00017000       0.18687000 </v>
   <v>       0.37461000       0.00017000      -0.31313000 </v>
   <v>       0.49987000      -0.29519000       0.31282000 </v>
   <v>       0.24987000       0.29519000       0.31282000 </v>
   <v>      -0.49987000       0.29519000      -0.43719000 </v>
   <v>       0.25013000      -0.29519000      -0.43719000 </v>
   <v>       0.49995000       0.32677000       0.31286000 </v>
   <v>       0.24995000      -0.32677000       0.31286000 </v>
   <v>      -0.49995000      -0.32677000      -0.43714000 </v>
   <v>       0.25005000       0.32677000      -0.43714000 </v>
   <v>      -0.37539000      -0.00016000       0.18687000 </v>
   <v>      -0.37539000      -0.00016000      -0.31313000 </v>
   <v>       0.12461000      -0.00016000       0.18687000 </v>
   <v>       0.12461000      -0.00016000      -0.31313000 </v>
   <v>       0.49987000       0.07798000       0.06246000 </v>
   <v>      -0.24987000       0.07798000       0.31246000 </v>
   <v>      -0.25013000      -0.07798000      -0.43754000 </v>
   <v>       0.24987000      -0.07798000       0.06246000 </v>
   <v>       0.00013000      -0.07798000       0.31246000 </v>
   <v>      -0.49987000      -0.07798000      -0.18754000 </v>
   <v>      -0.00013000       0.07798000      -0.43754000 </v>
   <v>       0.25013000       0.07798000      -0.18754000 </v>
   <v>      -0.49987000       0.29519000       0.06281000 </v>
   <v>      -0.25013000       0.29519000       0.31282000 </v>
   <v>       0.25013000      -0.29519000       0.06281000 </v>
   <v>      -0.24987000      -0.29519000      -0.43719000 </v>
   <v>      -0.00013000      -0.29519000       0.31282000 </v>
   <v>       0.00013000       0.29519000      -0.43719000 </v>
   <v>       0.49987000      -0.29519000      -0.18718000 </v>
   <v>       0.24987000       0.29519000      -0.18718000 </v>
   <v>      -0.49995000      -0.32677000       0.06286000 </v>
   <v>       0.25005000       0.32677000       0.06286000 </v>
   <v>      -0.25005000      -0.32677000       0.31286000 </v>
   <v>      -0.24995000       0.32677000      -0.43714000 </v>
   <v>      -0.00005000       0.32677000       0.31286000 </v>
   <v>       0.00005000      -0.32677000      -0.43714000 </v>
   <v>       0.49995000       0.32677000      -0.18714000 </v>
   <v>       0.24995000      -0.32677000      -0.18714000 </v>
   <v>      -0.12461000       0.00017000       0.43687000 </v>
   <v>       0.37539000       0.00017000      -0.06313000 </v>
   <v>      -0.25013000      -0.07798000       0.06246000 </v>
   <v>      -0.00013000       0.07798000       0.06246000 </v>
   <v>      -0.24987000       0.07798000      -0.18754000 </v>
   <v>       0.00013000      -0.07798000      -0.18754000 </v>
   <v>      -0.12539000       0.00017000       0.18687000 </v>
   <v>      -0.12539000       0.00017000      -0.31313000 </v>
   <v>      -0.24987000      -0.29519000       0.06281000 </v>
   <v>       0.00013000       0.29519000       0.06281000 </v>
   <v>      -0.25013000       0.29519000      -0.18718000 </v>
   <v>      -0.00013000      -0.29519000      -0.18718000 </v>
   <v>      -0.24995000       0.32677000       0.06286000 </v>
   <v>       0.00005000      -0.32677000       0.06286000 </v>
   <v>      -0.25005000      -0.32677000      -0.18714000 </v>
   <v>      -0.00005000       0.32677000      -0.18714000 </v>
   <v>      -0.12461000       0.00017000      -0.06313000 </v>
  </varray>
 </structure>
 <varray name="primitive_index" >
  <v type="int" >        1 </v>
  <v type="int" >       53 </v>
  <v type="int" >       48 </v>
  <v type="int" >       54 </v>
  <v type="int" >       55 </v>
  <v type="int" >        4 </v>
  <v type="int" >        3 </v>
  <v type="int" >        8 </v>
  <v type="int" >       17 </v>
  <v type="int" >       16 </v>
  <v type="int" >       26 </v>
  <v type="int" >       23 </v>
  <v type="int" >       32 </v>
  <v type="int" >       33 </v>
  <v type="int" >       43 </v>
  <v type="int" >       38 </v>
  <v type="int" >        6 </v>
  <v type="int" >        9 </v>
  <v type="int" >        2 </v>
  <v type="int" >       12 </v>
  <v type="int" >       46 </v>
  <v type="int" >       52 </v>
  <v type="int" >       59 </v>
  <v type="int" >       47 </v>
  <v type="int" >       49 </v>
  <v type="int" >       61 </v>
  <v type="int" >       58 </v>
  <v type="int" >       56 </v>
  <v type="int" >       18 </v>
  <v type="int" >       20 </v>
  <v type="int" >       15 </v>
  <v type="int" >       27 </v>
  <v type="int" >       21 </v>
  <v type="int" >       22 </v>
  <v type="int" >       25 </v>
  <v type="int" >       24 </v>
  <v type="int" >       35 </v>
  <v type="int" >       30 </v>
  <v type="int" >       37 </v>
  <v type="int" >       42 </v>
  <v type="int" >       36 </v>
  <v type="int" >       39 </v>
  <v type="int" >       40 </v>
  <v type="int" >       41 </v>
  <v type="int" >        5 </v>
  <v type="int" >       11 </v>
  <v type="int" >       51 </v>
  <v type="int" >       50 </v>
  <v type="int" >       60 </v>
  <v type="int" >       57 </v>
  <v type="int" >        7 </v>
  <v type="int" >       10 </v>
  <v type="int" >       19 </v>
  <v type="int" >       14 </v>
  <v type="int" >       28 </v>
  <v type="int" >       29 </v>
  <v type="int" >       34 </v>
  <v type="int" >       31 </v>
  <v type="int" >       45 </v>
  <v type="int" >       44 </v>
  <v type="int" >       13 </v>
 </varray>
 <kpoints>
  <generation param="Gamma">
   <v type="int" name="divisions">       2        2        2 </v>
   <v name="usershift">      0.00000000       0.00000000       0.00000000 </v>
   <v name="genvec1">      0.50000000       0.00000000       0.00000000 </v>
   <v name="genvec2">      0.00000000       0.50000000       0.00000000 </v>
   <v name="genvec3">      0.00000000       0.00000000       0.50000000 </v>
   <v name="shift">      0.00000000       0.00000000       0.00000000 </v>
  </generation>
  <varray name="kpointlist" >
   <v>       0.00000000       0.00000000       0.00000000 </v>
   <v>       0.50000000       0.00000000       0.00000000 </v>
   <v>       0.00000000       0.50000000       0.00000000 </v>
   <v>       0.50000000       0.50000000       0.00000000 </v>
   <v>       0.00000000       0.00000000       0.50000000 </v>
   <v>       0.50000000       0.00000000       0.50000000 </v>
   <v>       0.00000000       0.50000000       0.50000000 </v>
   <v>       0.50000000       0.50000000       0.50000000 </v>
  </varray>
  <varray name="weights" >
   <v>       0.12500000 </v>
   <v>       0.12500000 </v>
   <v>       0.12500000 </v>
   <v>       0.12500000 </v>
   <v>       0.12500000 </v>
   <v>       0.12500000 </v>
   <v>       0.12500000 </v>
   <v>       0.12500000 </v>
  </varray>
  <varray name="tetrahedronlist"  type="int" >
   <v type="int" >        2        1        2        4        5 </v>
   <v type="int" >        2        1        3        4        5 </v>
   <v type="int" >        2        3        4        5        7 </v>
   <v type="int" >        2        2        4        5        6 </v>
   <v type="int" >        2        4        5        6        8 </v>
   <v type="int" >        2        4        5        7        8 </v>
   <v type="int" >        2        1        2        3        6 </v>
   <v type="int" >        2        2        3        4        6 </v>
   <v type="int" >        2        3        4        6        8 </v>
   <v type="int" >        2        1        3        5        6 </v>
   <v type="int" >        2        3        5        6        7 </v>
   <v type="int" >        2        3        6        7        8 </v>
   <v type="int" >        2        2        3        4        7 </v>
   <v type="int" >        2        1        2        3        7 </v>
   <v type="int" >        2        1        2        5        7 </v>
   <v type="int" >        2        2        4        7        8 </v>
   <v type="int" >        2        2        6        7        8 </v>
   <v type="int" >        2        2        5        6        7 </v>
   <v type="int" >        2        1        3        4        8 </v>
   <v type="int" >        2        1        2        4        8 </v>
   <v type="int" >        2        1        2        6        8 </v>
   <v type="int" >        2        1        3        7        8 </v>
   <v type="int" >        2        1        5        7        8 </v>
   <v type="int" >        2        1        5        6        8 </v>
  </varray>
  <i name="volumeweight">      0.02083333 </i>
 </kpoints>
 <parameters>
  <separator name="general" >
   <i type="string" name="SYSTEM">La2O2S</i>
   <i type="logical" name="LCOMPAT"> F  </i>
  </separator>
  <separator name="electronic" >
   <i type="string" name="PREC">normal</i>
   <i name="ENMAX">    600.00000000</i>
   <i name="ENAUG">    900.00000000</i>
   <i name="EDIFF">      0.00000100</i>
   <i type="int" name="IALGO">    38</i>
   <i type="int" name="IWAVPR">    11</i>
   <i type="int" name="NBANDS">   280</i>
   <i name="NELECT">    468.00000000</i>
   <i type="int" name="TURBO">     0</i>
   <i type="int" name="IRESTART">     0</i>
   <i type="int" name="NREBOOT">     0</i>
   <i type="int" name="NMIN">     0</i>
   <i name="EREF">      0.00000000</i>
   <separator name="electronic smearing" >
    <i type="int" name="ISMEAR">    -5</i>
    <i name="SIGMA">      0.20000000</i>
    <i name="KSPACING">      0.50000000</i>
    <i type="logical" name="KGAMMA"> T  </i>
   </separator>
   <separator name="electronic projectors" >
    <i type="logical" name="LREAL"> F  </i>
    <v name="ROPT">      0.00000000      0.00000000      0.00000000      0.00000000      0.00000000</v>
    <i type="int" name="LMAXPAW">  -100</i>
    <i type="int" name="LMAXMIX">     2</i>
    <i type="logical" name="NLSPLINE"> F  </i>
   </separator>
   <separator name="electronic startup" >
    <i type="int" name="ISTART">     0</i>
    <i type="int" name="ICHARG">     2</i>
    <i type="int" name="INIWAV">     1</i>
   </separator>
   <separator name="electronic spin" >
    <i type="int" name="ISPIN">     1</i>
    <i type="logical" name="LNONCOLLINEAR"> F  </i>
    <v name="MAGMOM">      1.00000000      1.00000000      1.00000000      1.00000000      1.00000000      1.00000000      1.00000000      1.00000000      1.00000000      1.00000000      1.00000000      1.00000000      1.00000000      1.00000000      1.00000000      1.00000000      1.00000000      1.00000000      1.00000000      1.00000000
      1.00000000      1.00000000      1.00000000      1.00000000      1.00000000      1.00000000      1.00000000      1.00000000      1.00000000      1.00000000      1.00000000      1.00000000      1.00000000      1.00000000      1.00000000      1.00000000      1.00000000      1.00000000      1.00000000      1.00000000
      1.00000000      1.00000000      1.00000000      1.00000000      1.00000000      1.00000000      1.00000000      1.00000000      1.00000000      1.00000000      1.00000000      1.00000000      1.00000000      1.00000000      1.00000000      1.00000000      1.00000000      1.00000000      1.00000000      1.00000000
      1.00000000</v>
    <i name="NUPDOWN">     -1.00000000</i>
    <i type="logical" name="LSORBIT"> F  </i>
    <v name="SAXIS">      0.00000000      0.00000000      1.00000000</v>
    <i type="logical" name="LSPIRAL"> F  </i>
    <v name="QSPIRAL">      0.00000000      0.00000000      0.00000000</v>
    <i type="logical" name="LZEROZ"> F  </i>
   </separator>
   <separator name="electronic exchange-correlation" >
    <i type="logical" name="LASPH"> F  </i>
    <i type="logical" name="LMETAGGA"> F  </i>
   </separator>
   <separator name="electronic convergence" >
    <i type="int" name="NELM">    60</i>
    <i type="int" name="NELMDL">    -5</i>
    <i type="int" name="NELMIN">     4</i>
    <i name="ENINI">    600.00000000</i>
    <separator name="electronic convergence detail" >
     <i type="logical" name="LDIAG"> T  </i>
     <i type="logical" name="LSUBROT"> F  </i>
     <i name="WEIMIN">      0.00100000</i>
     <i name="EBREAK">      0.00000000</i>
     <i name="DEPER">      0.30000000</i>
     <i type="int" name="NRMM">     4</i>
     <i name="TIME">      0.40000000</i>
    </separator>
   </separator>
   <separator name="electronic mixer" >
    <i name="AMIX">      0.40000000</i>
    <i name="BMIX">      1.00000000</i>
    <i name="AMIN">      0.10000000</i>
    <i name="AMIX_MAG">      1.60000000</i>
    <i name="BMIX_MAG">      1.00000000</i>
    <separator name="electronic mixer details" >
     <i type="int" name="IMIX">     4</i>
     <i type="logical" name="MIXFIRST"> F  </i>
     <i type="int" name="MAXMIX">   -45</i>
     <i name="WC">    100.00000000</i>
     <i type="int" name="INIMIX">     1</i>
     <i type="int" name="MIXPRE">     1</i>
     <i type="int" name="MREMOVE">     5</i>
    </separator>
   </separator>
   <separator name="electronic dipolcorrection" >
    <i type="logical" name="LDIPOL"> F  </i>
    <i type="logical" name="LMONO"> F  </i>
    <i type="int" name="IDIPOL">     0</i>
    <i name="EPSILON">      1.00000000</i>
    <v name="DIPOL">   -100.00000000   -100.00000000   -100.00000000</v>
    <i name="EFIELD">      0.00000000</i>
   </separator>
  </separator>
  <separator name="grids" >
   <i type="int" name="NGX">    70</i>
   <i type="int" name="NGY">    60</i>
   <i type="int" name="NGZ">    70</i>
   <i type="int" name="NGXF">   140</i>
   <i type="int" name="NGYF">   120</i>
   <i type="int" name="NGZF">   140</i>
   <i type="logical" name="ADDGRID"> F  </i>
  </separator>
  <separator name="ionic" >
   <i type="int" name="NSW">     1</i>
   <i type="int" name="IBRION">     2</i>
   <i type="int" name="MDALGO">     0</i>
   <i type="int" name="ISIF">     2</i>
   <i name="PSTRESS">      0.00000000</i>
   <i name="EDIFFG">     -0.01000000</i>
   <i type="int" name="NFREE">    10</i>
   <i name="POTIM">      0.50000000</i>
   <i name="SMASS">     -3.00000000</i>
   <i name="SCALEE">      1.00000000</i>
  </separator>
  <separator name="ionic md" >
   <i name="TEBEG">      0.00010000</i>
   <i name="TEEND">      0.00010000</i>
   <i type="int" name="NBLOCK">     1</i>
   <i type="int" name="KBLOCK">     1</i>
   <i type="int" name="NPACO">   256</i>
   <i name="APACO">     16.00000000</i>
  </separator>
  <separator name="symmetry" >
   <i type="int" name="ISYM">     2</i>
   <i name="SYMPREC">      0.00001000</i>
  </separator>
  <separator name="dos" >
   <i type="int" name="LORBIT">     0</i>
   <v name="RWIGS">     -1.00000000     -1.00000000     -1.00000000     -1.00000000     -1.00000000</v>
   <i type="int" name="NEDOS">   301</i>
   <i name="EMIN">     10.00000000</i>
   <i name="EMAX">    -10.00000000</i>
   <i name="EFERMI">      0.00000000</i>
  </separator>
  <separator name="writing" >
   <i type="int" name="NWRITE">     2</i>
   <i type="logical" name="LWAVE"> F  </i>
   <i type="logical" name="LDOWNSAMPLE"> F  </i>
   <i type="logical" name="LCHARG"> F  </i>
   <i type="logical" name="LPARD"> F  </i>
   <i type="logical" name="LVTOT"> F  </i>
   <i type="logical" name="LVHAR"> F  </i>
   <i type="logical" name="LELF"> F  </i>
   <i type="logical" name="LOPTICS"> F  </i>
   <v name="STM">      0.00000000      0.00000000      0.00000000      0.00000000      0.00000000      0.00000000      0.00000000</v>
  </separator>
  <separator name="performance" >
   <i type="int" name="NPAR">    28</i>
   <i type="int" name="NSIM">     4</i>
   <i type="int" name="NBLK">    -1</i>
   <i type="logical" name="LPLANE"> T  </i>
   <i type="logical" name="LSCALAPACK"> T  </i>
   <i type="logical" name="LSCAAWARE"> F  </i>
   <i type="logical" name="LSCALU"> F  </i>
   <i type="logical" name="LASYNC"> F  </i>
   <i type="logical" name="LORBITALREAL"> F  </i>
  </separator>
  <separator name="miscellaneous" >
   <i type="int" name="IDIOT">     3</i>
   <i type="int" name="ISPECIAL">     0</i>
   <i type="logical" name="LMUSIC"> F  </i>
   <v name="POMASS">      7.01000000     24.30500000    208.98000000     32.06600000     16.00000000</v>
   <v name="DARWINR">      0.00000000      0.00000000      0.00000000      0.00000000      0.00000000</v>
   <v name="DARWINV">      1.00000000      1.00000000      1.00000000      1.00000000      1.00000000</v>
   <i type="logical" name="LCORR"> T  </i>
  </separator>
  <i type="logical" name="GGA_COMPAT"> T  </i>
  <i type="logical" name="LBERRY"> F  </i>
  <i type="int" name="ICORELEVEL">     0</i>
  <i type="logical" name="LDAU"> F  </i>
  <i type="int" name="I_CONSTRAINED_M">     0</i>
  <separator name="electronic exchange-correlation" >
   <i type="string" name="GGA">--</i>
   <i type="int" name="VOSKOWN">     0</i>
   <i type="logical" name="LHFCALC"> F  </i>
   <i type="string" name="PRECFOCK"></i>
   <i type="logical" name="LSYMGRAD"> F  </i>
   <i type="logical" name="LHFONE"> F  </i>
   <i type="logical" name="LRHFCALC"> F  </i>
   <i type="logical" name="LTHOMAS"> F  </i>
   <i type="logical" name="LMODELHF"> F  </i>
   <i name="ENCUT4O">     -1.00000000</i>
   <i type="int" name="EXXOEP">     0</i>
   <i type="int" name="FOURORBIT">     0</i>
   <i name="AEXX">      0.00000000</i>
   <i name="HFALPHA">      0.00000000</i>
   <i name="MCALPHA">      0.00000000</i>
   <i name="ALDAX">      1.00000000</i>
   <i name="AGGAX">      1.00000000</i>
   <i name="ALDAC">      1.00000000</i>
   <i name="AGGAC">      1.00000000</i>
   <i type="int" name="NKREDX">     1</i>
   <i type="int" name="NKREDY">     1</i>
   <i type="int" name="NKREDZ">     1</i>
   <i type="logical" name="SHIFTRED"> F  </i>
   <i type="logical" name="ODDONLY"> F  </i>
   <i type="logical" name="EVENONLY"> F  </i>
   <i type="int" name="LMAXFOCK">     0</i>
   <i type="int" name="NMAXFOCKAE">     0</i>
   <i type="logical" name="LFOCKAEDFT"> F  </i>
   <i name="HFSCREEN">      0.00000000</i>
   <i name="HFSCREENC">      0.00000000</i>
   <i type="int" name="NBANDSGWLOW">     0</i>
  </separator>
  <separator name="vdW DFT" >
   <i type="logical" name="LUSE_VDW"> F  </i>
   <i name="Zab_VDW">     -0.84910000</i>
   <i name="PARAM1">      0.12340000</i>
   <i name="PARAM2">      1.00000000</i>
   <i name="PARAM3">      0.00000000</i>
  </separator>
  <separator name="model GW" >
   <i type="int" name="MODEL_GW">     0</i>
   <i name="MODEL_EPS0">     11.77228070</i>
   <i name="MODEL_ALPHA">      1.00000000</i>
  </separator>
  <separator name="linear response parameters" >
   <i type="logical" name="LEPSILON"> F  </i>
   <i type="logical" name="LRPA"> F  </i>
   <i type="logical" name="LNABLA"> F  </i>
   <i type="logical" name="LVEL"> F  </i>
   <i type="int" name="KINTER">     0</i>
   <i name="CSHIFT">      0.10000000</i>
   <i name="OMEGAMAX">     -1.00000000</i>
   <i name="DEG_THRESHOLD">      0.00200000</i>
   <i name="RTIME">     -0.10000000</i>
   <i name="WPLASMAI">      0.00000000</i>
   <v name="DFIELD">      0.00000000      0.00000000      0.00000000</v>
   <v name="WPLASMA">      0.00000000      0.00000000      0.00000000      0.00000000      0.00000000      0.00000000      0.00000000      0.00000000      0.00000000</v>
  </separator>
  <separator name="orbital magnetization" >
   <i type="logical" name="NUCIND"> F  </i>
   <v name="MAGPOS">      0.00000000      0.00000000      0.00000000</v>
   <i type="logical" name="LNICSALL"> T  </i>
   <i type="logical" name="ORBITALMAG"> F  </i>
   <i type="logical" name="LMAGBLOCH"> F  </i>
   <i type="logical" name="LCHIMAG"> F  </i>
   <i type="logical" name="LGAUGE"> T  </i>
   <i type="int" name="MAGATOM">     0</i>
   <v name="MAGDIPOL">      0.00000000      0.00000000      0.00000000</v>
   <v name="AVECCONST">      0.00000000      0.00000000      0.00000000</v>
  </separator>
  <separator name="response functions" >
   <i type="logical" name="LADDER"> F  </i>
   <i type="logical" name="LRPAFORCE"> F  </i>
   <i type="logical" name="LFXC"> F  </i>
   <i type="logical" name="LHARTREE"> T  </i>
   <i type="int" name="IBSE">     0</i>
   <v type="int" name="KPOINT">    -1     0     0     0</v>
   <i type="logical" name="LTCTE"> F  </i>
   <i type="logical" name="LTETE"> F  </i>
   <i type="logical" name="LTRIPLET"> F  </i>
   <i type="logical" name="LFXCEPS"> F  </i>
   <i type="logical" name="LFXHEG"> F  </i>
   <i type="int" name="NATURALO">     2</i>
   <i type="logical" name="L2ORDER"> F  </i>
   <i type="logical" name="LMP2LT"> F  </i>
   <i type="logical" name="LUSEW"> F  </i>
   <i name="ENCUTGW">     -2.00000000</i>
   <i name="ENCUTGWSOFT">     -2.00000000</i>
   <i name="ENCUTLF">     -1.00000000</i>
   <i type="int" name="LMAXMP2">    -1</i>
   <i name="SCISSOR">      0.00000000</i>
   <i type="int" name="NOMEGA">     0</i>
   <i type="int" name="NOMEGAR">     0</i>
   <i type="int" name="NBANDSGW">    -1</i>
   <i type="int" name="NBANDSO">    -1</i>
   <i type="int" name="NBANDSV">    -1</i>
   <i type="int" name="NELM">     1</i>
   <i type="int" name="NELMHF">     1</i>
   <i type="int" name="DIM">     3</i>
   <i type="int" name="ANTIRES">     0</i>
   <i name="OMEGAMAX">    -30.00000000</i>
   <i name="OMEGAMIN">    -30.00000000</i>
   <i name="OMEGATL">   -200.00000000</i>
   <i type="int" name="OMEGAGRID">   140</i>
   <i name="CSHIFT">     -0.10000000</i>
   <i type="logical" name="SELFENERGY"> F  </i>
   <i type="logical" name="LSPECTRAL"> F  </i>
   <i type="logical" name="LSPECTRALGW"> F  </i>
   <i type="logical" name="LSINGLES"> F  </i>
   <i type="logical" name="LFERMIGW"> F  </i>
   <i type="logical" name="ODDONLYGW"> F  </i>
   <i type="logical" name="EVENONLYGW"> F  </i>
   <i type="int" name="NKREDLFX">     1</i>
   <i type="int" name="NKREDLFY">     1</i>
   <i type="int" name="NKREDLFZ">     1</i>
   <i type="int" name="MAXMEM">  2800</i>
   <i type="int" name="TELESCOPE">     0</i>
   <i type="int" name="TAUPAR">     1</i>
   <i type="int" name="OMEGAPAR">    -1</i>
   <i name="LAMBDA">      1.00000000</i>
  </separator>
  <separator name="External order field" >
   <i name="OFIELD_KAPPA">      0.00000000</i>
   <v name="OFIELD_K">      0.00000000      0.00000000      0.00000000</v>
   <i name="OFIELD_Q6_NEAR">      0.00000000</i>
   <i name="OFIELD_Q6_FAR">      0.00000000</i>
   <i name="OFIELD_A">      0.00000000</i>
  </separator>
 </parameters>
 <atominfo>
  <atoms>      61 </atoms>
  <types>       5 </types>
  <array name="atoms" >
   <dimension dim="1">ion</dimension>
   <field type="string">element</field>
   <field type="int">atomtype</field>
   <set>
    <rc><c>Li</c><c>   1</c></rc>
    <rc><c>Li</c><c>   1</c></rc>
    <rc><c>Li</c><c>   1</c></rc>
    <rc><c>Li</c><c>   1</c></rc>
    <rc><c>Li</c><c>   1</c></rc>
    <rc><c>Li</c><c>   1</c></rc>
    <rc><c>Li</c><c>   1</c></rc>
    <rc><c>Li</c><c>   1</c></rc>
    <rc><c>Li</c><c>   1</c></rc>
    <rc><c>Li</c><c>   1</c></rc>
    <rc><c>Mg</c><c>   2</c></rc>
    <rc><c>Mg</c><c>   2</c></rc>
    <rc><c>Mg</c><c>   2</c></rc>
    <rc><c>Bi</c><c>   3</c></rc>
    <rc><c>Bi</c><c>   3</c></rc>
    <rc><c>Bi</c><c>   3</c></rc>
    <rc><c>Bi</c><c>   3</c></rc>
    <rc><c>Bi</c><c>   3</c></rc>
    <rc><c>Bi</c><c>   3</c></rc>
    <rc><c>Bi</c><c>   3</c></rc>
    <rc><c>Bi</c><c>   3</c></rc>
    <rc><c>Bi</c><c>   3</c></rc>
    <rc><c>Bi</c><c>   3</c></rc>
    <rc><c>Bi</c><c>   3</c></rc>
    <rc><c>Bi</c><c>   3</c></rc>
    <rc><c>Bi</c><c>   3</c></rc>
    <rc><c>Bi</c><c>   3</c></rc>
    <rc><c>Bi</c><c>   3</c></rc>
    <rc><c>Bi</c><c>   3</c></rc>
    <rc><c>S </c><c>   4</c></rc>
    <rc><c>S </c><c>   4</c></rc>
    <rc><c>S </c><c>   4</c></rc>
    <rc><c>S </c><c>   4</c></rc>
    <rc><c>S </c><c>   4</c></rc>
    <rc><c>S </c><c>   4</c></rc>
    <rc><c>S </c><c>   4</c></rc>
    <rc><c>S </c><c>   4</c></rc>
    <rc><c>S </c><c>   4</c></rc>
    <rc><c>S </c><c>   4</c></rc>
    <rc><c>S </c><c>   4</c></rc>
    <rc><c>S </c><c>   4</c></rc>
    <rc><c>S </c><c>   4</c></rc>
    <rc><c>S </c><c>   4</c></rc>
    <rc><c>S </c><c>   4</c></rc>
    <rc><c>S </c><c>   4</c></rc>
    <rc><c>O </c><c>   5</c></rc>
    <rc><c>O </c><c>   5</c></rc>
    <rc><c>O </c><c>   5</c></rc>
    <rc><c>O </c><c>   5</c></rc>
    <rc><c>O </c><c>   5</c></rc>
    <rc><c>O </c><c>   5</c></rc>
    <rc><c>O </c><c>   5</c></rc>
    <rc><c>O </c><c>   5</c></rc>
    <rc><c>O </c><c>   5</c></rc>
    <rc><c>O </c><c>   5</c></rc>
    <rc><c>O </c><c>   5</c></rc>
    <rc><c>O </c><c>   5</c></rc>
    <rc><c>O </c><c>   5</c></rc>
    <rc><c>O </c><c>   5</c></rc>
    <rc><c>O </c><c>   5</c></rc>
    <rc><c>O </c><c>   5</c></rc>
   </set>
  </array>
  <array name="atomtypes" >
   <dimension dim="1">type</dimension>
   <field type="int">atomspertype</field>
   <field type="string">element</field>
   <field>mass</field>
   <field>valence</field>
   <field type="string">pseudopotential</field>
   <set>
    <rc><c>  10</c><c>Li</c><c>      7.01000000</c><c>      3.00000000</c><c>  PAW_PBE Li_sv 10Sep2004               </c></rc>
    <rc><c>   3</c><c>Mg</c><c>     24.30500000</c><c>      2.00000000</c><c>  PAW_PBE Mg 13Apr2007                  </c></rc>
    <rc><c>  16</c><c>Bi</c><c>    208.98000000</c><c>     15.00000000</c><c>  PAW_PBE Bi_d 06Sep2000                </c></rc>
    <rc><c>  16</c><c>S </c><c>     32.06600000</c><c>      6.00000000</c><c>  PAW_PBE S 06Sep2000                   </c></rc>
    <rc><c>  16</c><c>O </c><c>     16.00000000</c><c>      6.00000000</c><c>  PAW_PBE O 08Apr2002                   </c></rc>
   </set>
  </array>
 </atominfo>
 <structure name="initialpos" >
  <crystal>
   <varray name="basis" >
    <v>      11.17850000       0.00000000       0.00000000 </v>
    <v>       0.00000000       9.57460000       0.00000000 </v>
    <v>       0.00000000       0.00000000      11.18240000 </v>
   </varray>
   <i name="volume">   1196.84853820 </i>
   <varray name="rec_basis" >
    <v>       0.08945744       0.00000000       0.00000000 </v>
    <v>       0.00000000       0.10444301       0.00000000 </v>
    <v>       0.00000000       0.00000000       0.08942624 </v>
   </varray>
  </crystal>
  <varray name="positions" >
   <v>       0.37539000       0.00017000       0.43687000 </v>
   <v>       0.12461000       0.99984000       0.18687000 </v>
   <v>       0.37461000       0.00017000       0.18687000 </v>
   <v>       0.62539000       0.99984000       0.43687000 </v>
   <v>       0.87539000       0.00017000       0.43687000 </v>
   <v>       0.62461000       0.99984000       0.18687000 </v>
   <v>       0.87461000       0.00017000       0.18687000 </v>
   <v>       0.37461000       0.00017000       0.68687000 </v>
   <v>       0.62461000       0.99984000       0.68687000 </v>
   <v>       0.87461000       0.00017000       0.68687000 </v>
   <v>       0.37539000       0.00017000       0.93687000 </v>
   <v>       0.12461000       0.99984000       0.68687000 </v>
   <v>       0.87539000       0.00017000       0.93687000 </v>
   <v>       0.00013000       0.29519000       0.06281000 </v>
   <v>       0.25013000       0.70481000       0.06281000 </v>
   <v>       0.24987000       0.29519000       0.31282000 </v>
   <v>       0.49987000       0.70481000       0.31282000 </v>
   <v>       0.50013000       0.29519000       0.06281000 </v>
   <v>       0.75013000       0.70481000       0.06281000 </v>
   <v>       0.74987000       0.29519000       0.31282000 </v>
   <v>       0.99987000       0.70481000       0.31282000 </v>
   <v>       0.00013000       0.29519000       0.56281000 </v>
   <v>       0.25013000       0.70481000       0.56281000 </v>
   <v>       0.24987000       0.29519000       0.81282000 </v>
   <v>       0.49987000       0.70481000       0.81282000 </v>
   <v>       0.50013000       0.29519000       0.56281000 </v>
   <v>       0.75013000       0.70481000       0.56281000 </v>
   <v>       0.74987000       0.29519000       0.81282000 </v>
   <v>       0.99987000       0.70481000       0.81282000 </v>
   <v>       0.25005000       0.32677000       0.06286000 </v>
   <v>       0.00005000       0.67323000       0.06286000 </v>
   <v>       0.49995000       0.32677000       0.31286000 </v>
   <v>       0.24995000       0.67323000       0.31286000 </v>
   <v>       0.75005000       0.32677000       0.06286000 </v>
   <v>       0.50005000       0.67323000       0.06286000 </v>
   <v>       0.99995000       0.32677000       0.31286000 </v>
   <v>       0.74995000       0.67323000       0.31286000 </v>
   <v>       0.25005000       0.32677000       0.56286000 </v>
   <v>       0.00005000       0.67323000       0.56286000 </v>
   <v>       0.49995000       0.32677000       0.81286000 </v>
   <v>       0.24995000       0.67323000       0.81286000 </v>
   <v>       0.75005000       0.32677000       0.56286000 </v>
   <v>       0.50005000       0.67323000       0.56286000 </v>
   <v>       0.99995000       0.32677000       0.81286000 </v>
   <v>       0.74995000       0.67323000       0.81286000 </v>
   <v>       0.49987000       0.07798000       0.06246000 </v>
   <v>       0.24987000       0.92202000       0.06246000 </v>
   <v>       0.25013000       0.07798000       0.31246000 </v>
   <v>       0.00013000       0.92202000       0.31246000 </v>
   <v>       0.99987000       0.07798000       0.06246000 </v>
   <v>       0.74987000       0.92202000       0.06246000 </v>
   <v>       0.75013000       0.07798000       0.31246000 </v>
   <v>       0.50013000       0.92202000       0.31246000 </v>
   <v>       0.49987000       0.07798000       0.56246000 </v>
   <v>       0.24987000       0.92202000       0.56246000 </v>
   <v>       0.25013000       0.07798000       0.81246000 </v>
   <v>       0.00013000       0.92202000       0.81246000 </v>
   <v>       0.99987000       0.07798000       0.56246000 </v>
   <v>       0.74987000       0.92202000       0.56246000 </v>
   <v>       0.75013000       0.07798000       0.81246000 </v>
   <v>       0.50013000       0.92202000       0.81246000 </v>
  </varray>
 </structure>
 <calculation>
  <scstep>
   <time name="dav">   60.29   60.54</time>
   <time name="total">   60.37   60.63</time>
   <energy>
    <i name="alphaZ">   1073.51873187 </i>
    <i name="ewald"> -30878.35450745 </i>
    <i name="hartreedc"> -12710.85547045 </i>
    <i name="XCdc">   1394.95803002 </i>
    <i name="pawpsdc">  36823.70205594 </i>
    <i name="pawaedc"> -36326.52930246 </i>
    <i name="eentropy">      0.00000000 </i>
    <i name="bandstr">   1804.69372498 </i>
    <i name="atom">  44791.06186932 </i>
    <i name="e_fr_energy">   5972.19513177 </i>
    <i name="e_wo_entrp">   5972.19513177 </i>
    <i name="e_0_energy">   5972.19513177 </i>
   </energy>
  </scstep>
  <scstep>
   <time name="dav">   60.24   60.57</time>
   <time name="total">   60.25   60.58</time>
   <energy>
    <i name="e_fr_energy">    811.23530033 </i>
    <i name="e_wo_entrp">    811.23530033 </i>
    <i name="e_0_energy">    811.23530033 </i>
   </energy>
  </scstep>
  <scstep>
   <time name="dav">   70.36   70.54</time>
   <time name="total">   70.36   70.54</time>
   <energy>
    <i name="e_fr_energy">   -242.11036901 </i>
    <i name="e_wo_entrp">   -242.11036901 </i>
    <i name="e_0_energy">   -242.11036901 </i>
   </energy>
  </scstep>
  <scstep>
   <time name="dav">   73.42   73.82</time>
   <time name="total">   73.43   73.82</time>
   <energy>
    <i name="e_fr_energy">   -346.53057913 </i>
    <i name="e_wo_entrp">   -346.53057913 </i>
    <i name="e_0_energy">   -346.53057913 </i>
   </energy>
  </scstep>
  <scstep>
   <time name="dav">   96.50   97.10</time>
   <time name="total">   97.25   97.85</time>
   <energy>
    <i name="e_fr_energy">   -355.55962256 </i>
    <i name="e_wo_entrp">   -355.55962256 </i>
    <i name="e_0_energy">   -355.55962256 </i>
   </energy>
  </scstep>
  <scstep>
   <time name="dav">   86.21   86.46</time>
   <time name="total">   87.02   87.28</time>
   <energy>
    <i name="e_fr_energy">   -296.77837302 </i>
    <i name="e_wo_entrp">   -296.77837302 </i>
    <i name="e_0_energy">   -296.77837302 </i>
   </energy>
  </scstep>
  <scstep>
   <time name="dav">   66.28   66.68</time>
   <time name="total">   67.18   67.57</time>
   <energy>
    <i name="e_fr_energy">   -299.56124561 </i>
    <i name="e_wo_entrp">   -299.56124561 </i>
    <i name="e_0_energy">   -299.56124561 </i>
   </energy>
  </scstep>
  <scstep>
   <time name="dav">   82.42   82.54</time>
   <time name="total">   83.24   83.37</time>
   <energy>
    <i name="e_fr_energy">   -298.29326723 </i>
    <i name="e_wo_entrp">   -298.29326723 </i>
    <i name="e_0_energy">   -298.29326723 </i>
   </energy>
  </scstep>
  <scstep>
   <time name="dav">   83.14   83.24</time>
   <time name="total">   83.95   84.06</time>
   <energy>
    <i name="e_fr_energy">   -297.62656548 </i>
    <i name="e_wo_entrp">   -297.62656548 </i>
    <i name="e_0_energy">   -297.62656548 </i>
   </energy>
  </scstep>
  <scstep>
   <time name="dav">   73.05   73.20</time>
   <time name="total">   73.86   74.01</time>
   <energy>
    <i name="e_fr_energy">   -297.63443103 </i>
    <i name="e_wo_entrp">   -297.63443103 </i>
    <i name="e_0_energy">   -297.63443103 </i>
   </energy>
  </scstep>
  <scstep>
   <time name="dav">   80.79   81.04</time>
   <time name="total">   81.61   81.87</time>
   <energy>
    <i name="e_fr_energy">   -297.64508980 </i>
    <i name="e_wo_entrp">   -297.64508980 </i>
    <i name="e_0_energy">   -297.64508980 </i>
   </energy>
  </scstep>
  <scstep>
   <time name="dav">   78.08   78.60</time>
   <time name="total">   78.89   79.42</time>
   <energy>
    <i name="e_fr_energy">   -297.64864021 </i>
    <i name="e_wo_entrp">   -297.64864021 </i>
    <i name="e_0_energy">   -297.64864021 </i>
   </energy>
  </scstep>
  <scstep>
   <time name="dav">   78.16   78.33</time>
   <time name="total">   78.97   79.15</time>
   <energy>
    <i name="e_fr_energy">   -297.64965777 </i>
    <i name="e_wo_entrp">   -297.64965777 </i>
    <i name="e_0_energy">   -297.64965777 </i>
   </energy>
  </scstep>
  <scstep>
   <time name="dav">   76.02   76.36</time>
   <time name="total">   76.84   77.19</time>
   <energy>
    <i name="e_fr_energy">   -297.64988249 </i>
    <i name="e_wo_entrp">   -297.64988249 </i>
    <i name="e_0_energy">   -297.64988249 </i>
   </energy>
  </scstep>
  <scstep>
   <time name="dav">   84.57   84.78</time>
   <time name="total">   85.39   85.60</time>
   <energy>
    <i name="e_fr_energy">   -297.64993326 </i>
    <i name="e_wo_entrp">   -297.64993326 </i>
    <i name="e_0_energy">   -297.64993326 </i>
   </energy>
  </scstep>
  <scstep>
   <time name="dav">   64.67   64.89</time>
   <time name="total">   65.48   65.70</time>
   <energy>
    <i name="e_fr_energy">   -297.64995035 </i>
    <i name="e_wo_entrp">   -297.64995035 </i>
    <i name="e_0_energy">   -297.64995035 </i>
   </energy>
  </scstep>
  <scstep>
   <time name="dav">   66.45   66.88</time>
   <time name="total">   67.26   67.69</time>
   <energy>
    <i name="e_fr_energy">   -297.64995245 </i>
    <i name="e_wo_entrp">   -297.64995245 </i>
    <i name="e_0_energy">   -297.64995245 </i>
   </energy>
  </scstep>
  <scstep>
   <time name="dav">   60.46   60.67</time>
   <time name="total">   60.53   60.74</time>
   <energy>
    <i name="alphaZ">   1073.51873187 </i>
    <i name="ewald"> -30878.35450745 </i>
    <i name="hartreedc"> -12950.61210496 </i>
    <i name="XCdc">   1418.58949825 </i>
    <i name="pawpsdc">  43851.30663416 </i>
    <i name="pawaedc"> -43328.77333500 </i>
    <i name="eentropy">      0.00000000 </i>
    <i name="bandstr">  -4274.38673915 </i>
    <i name="atom">  44791.06186932 </i>
    <i name="e_fr_energy">   -297.64995296 </i>
    <i name="e_wo_entrp">   -297.64995296 </i>
    <i name="e_0_energy">   -297.64995296 </i>
   </energy>
  </scstep>
  <structure>
   <crystal>
    <varray name="basis" >
     <v>      11.17850000       0.00000000       0.00000000 </v>
     <v>       0.00000000       9.57460000       0.00000000 </v>
     <v>       0.00000000       0.00000000      11.18240000 </v>
    </varray>
    <i name="volume">   1196.84853820 </i>
    <varray name="rec_basis" >
     <v>       0.08945744       0.00000000       0.00000000 </v>
     <v>       0.00000000       0.10444301       0.00000000 </v>
     <v>       0.00000000       0.00000000       0.08942624 </v>
    </varray>
   </crystal>
   <varray name="positions" >
    <v>       0.37539000       0.00017000       0.43687000 </v>
    <v>       0.12461000       0.99984000       0.18687000 </v>
    <v>       0.37461000       0.00017000       0.18687000 </v>
    <v>       0.62539000       0.99984000       0.43687000 </v>
    <v>       0.87539000       0.00017000       0.43687000 </v>
    <v>       0.62461000       0.99984000       0.18687000 </v>
    <v>       0.87461000       0.00017000       0.18687000 </v>
    <v>       0.37461000       0.00017000       0.68687000 </v>
    <v>       0.62461000       0.99984000       0.68687000 </v>
    <v>       0.87461000       0.00017000       0.68687000 </v>
    <v>       0.37539000       0.00017000       0.93687000 </v>
    <v>       0.12461000       0.99984000       0.68687000 </v>
    <v>       0.87539000       0.00017000       0.93687000 </v>
    <v>       0.00013000       0.29519000       0.06281000 </v>
    <v>       0.25013000       0.70481000       0.06281000 </v>
    <v>       0.24987000       0.29519000       0.31282000 </v>
    <v>       0.49987000       0.70481000       0.31282000 </v>
    <v>       0.50013000       0.29519000       0.06281000 </v>
    <v>       0.75013000       0.70481000       0.06281000 </v>
    <v>       0.74987000       0.29519000       0.31282000 </v>
    <v>       0.99987000       0.70481000       0.31282000 </v>
    <v>       0.00013000       0.29519000       0.56281000 </v>
    <v>       0.25013000       0.70481000       0.56281000 </v>
    <v>       0.24987000       0.29519000       0.81282000 </v>
    <v>       0.49987000       0.70481000       0.81282000 </v>
    <v>       0.50013000       0.29519000       0.56281000 </v>
    <v>       0.75013000       0.70481000       0.56281000 </v>
    <v>       0.74987000       0.29519000       0.81282000 </v>
    <v>       0.99987000       0.70481000       0.81282000 </v>
    <v>       0.25005000       0.32677000       0.06286000 </v>
    <v>       0.00005000       0.67323000       0.06286000 </v>
    <v>       0.49995000       0.32677000       0.31286000 </v>
    <v>       0.24995000       0.67323000       0.31286000 </v>
    <v>       0.75005000       0.32677000       0.06286000 </v>
    <v>       0.50005000       0.67323000       0.06286000 </v>
    <v>       0.99995000       0.32677000       0.31286000 </v>
    <v>       0.74995000       0.67323000       0.31286000 </v>
    <v>       0.25005000       0.32677000       0.56286000 </v>
    <v>       0.00005000       0.67323000       0.56286000 </v>
    <v>       0.49995000       0.32677000       0.81286000 </v>
    <v>       0.24995000       0.67323000       0.81286000 </v>
    <v>       0.75005000       0.32677000       0.56286000 </v>
    <v>       0.50005000       0.67323000       0.56286000 </v>
    <v>       0.99995000       0.32677000       0.81286000 </v>
    <v>       0.74995000       0.67323000       0.81286000 </v>
    <v>       0.49987000       0.07798000       0.06246000 </v>
    <v>       0.24987000       0.92202000       0.06246000 </v>
    <v>       0.25013000       0.07798000       0.31246000 </v>
    <v>       0.00013000       0.92202000       0.31246000 </v>
    <v>       0.99987000       0.07798000       0.06246000 </v>
    <v>       0.74987000       0.92202000       0.06246000 </v>
    <v>       0.75013000       0.07798000       0.31246000 </v>
    <v>       0.50013000       0.92202000       0.31246000 </v>
    <v>       0.49987000       0.07798000       0.56246000 </v>
    <v>       0.24987000       0.92202000       0.56246000 </v>
    <v>       0.25013000       0.07798000       0.81246000 </v>
    <v>       0.00013000       0.92202000       0.81246000 </v>
    <v>       0.99987000       0.07798000       0.56246000 </v>
    <v>       0.74987000       0.92202000       0.56246000 </v>
    <v>       0.75013000       0.07798000       0.81246000 </v>
    <v>       0.50013000       0.92202000       0.81246000 </v>
   </varray>
  </structure>
  <varray name="forces" >
   <v>      -0.42156160       0.06542222      -0.11610879 </v>
   <v>       0.01047468      -0.00064193       0.20185650 </v>
   <v>      -0.15383986       0.05931281       0.35231440 </v>
   <v>      -0.00817446      -0.00012132      -0.03791113 </v>
   <v>       0.40604001      -0.06808714      -0.11541186 </v>
   <v>       0.00865029      -0.00061640      -0.29912826 </v>
   <v>       0.15719935      -0.06280094       0.34827972 </v>
   <v>       0.31761071      -0.06087971      -0.34328577 </v>
   <v>       0.00802900      -0.00008643       0.31087431 </v>
   <v>      -0.31420044       0.05935732      -0.33911626 </v>
   <v>       0.16680461      -0.12491828       0.28939693 </v>
   <v>       0.02773419       0.00294229      -0.39910267 </v>
   <v>      -0.21087277       0.11088785       0.29101982 </v>
   <v>       0.17249159       0.00029308       0.22864359 </v>
   <v>      -0.18242533       0.01227376       0.22655405 </v>
   <v>      -0.13185097      -1.02529490       0.09596735 </v>
   <v>      -0.04394330      -0.00087493       0.00424924 </v>
   <v>       0.16858799      -0.01682622       0.12865735 </v>
   <v>      -0.18046897       0.02918487       0.12696907 </v>
   <v>       0.05487793       0.00170035       0.00448472 </v>
   <v>       0.14751381       1.02229967       0.09424566 </v>
   <v>       0.01453178       0.01970297      -0.46379367 </v>
   <v>      -0.02499237      -0.00998860      -0.46237412 </v>
   <v>      -0.05055941       0.97515301       0.12189906 </v>
   <v>       0.24856271      -0.01467005       0.02221495 </v>
   <v>       0.00573517       0.01812260      -0.17207057 </v>
   <v>      -0.01979201      -0.01957885      -0.17175244 </v>
   <v>      -0.23714695       0.01022686       0.02352724 </v>
   <v>       0.06217253      -0.98780319       0.12260795 </v>
   <v>       0.05966845       0.14614244      -0.28267178 </v>
   <v>      -0.06114081      -0.14639991      -0.28349412 </v>
   <v>       0.11196961       0.22601477       0.01301071 </v>
   <v>       0.11752640      -0.20084048      -0.00776082 </v>
   <v>       0.05619873       0.13923892      -0.10267193 </v>
   <v>      -0.05659041      -0.13990585      -0.10326288 </v>
   <v>      -0.11671796       0.19946731      -0.00806637 </v>
   <v>      -0.11003355      -0.22697800       0.01491596 </v>
   <v>      -0.03569863       0.11760370       0.30416994 </v>
   <v>       0.03319699      -0.11652829       0.30545517 </v>
   <v>      -0.13633221       0.09413083       0.02298161 </v>
   <v>      -0.05975759      -0.07124550      -0.01854081 </v>
   <v>      -0.00745398       0.18890994       0.06713498 </v>
   <v>       0.00758007      -0.18935976       0.06770063 </v>
   <v>       0.05982310       0.06834673      -0.01722100 </v>
   <v>       0.13880107      -0.09590925       0.02014018 </v>
   <v>      -1.09841474       0.05120031       0.04966245 </v>
   <v>       1.13802477      -0.04686142      -0.08796921 </v>
   <v>       0.65915518       0.84421490      -0.60000107 </v>
   <v>      -0.67448457      -0.83997852      -0.59946767 </v>
   <v>      -1.11856903       0.04782662      -0.08006878 </v>
   <v>       1.11838792      -0.04953702       0.04140090 </v>
   <v>      -0.07893164       0.03489701       0.00409129 </v>
   <v>       0.06865390      -0.03374280       0.00333212 </v>
   <v>       0.00491271      -0.01933502       0.08252701 </v>
   <v>       0.10946699       0.00744436       1.31454118 </v>
   <v>       0.53523816      -0.67681327      -0.65181108 </v>
   <v>      -0.55440974       0.68010596      -0.64612268 </v>
   <v>      -0.10866116      -0.01007845       1.31218681 </v>
   <v>       0.00781547       0.02137445       0.08220008 </v>
   <v>       1.18079557      -0.02470232      -0.14408809 </v>
   <v>      -1.18720702       0.02760683      -0.14593911 </v>
  </varray>
  <varray name="stress" >
   <v>     -10.77886999      -0.14955297      -0.00258569 </v>
   <v>      -0.14955275     -14.25205118       0.03499714 </v>
   <v>      -0.00258562       0.03499717      -8.81993502 </v>
  </varray>
  <energy>
   <i name="e_fr_energy">   -312.22785918 </i>
   <i name="e_wo_entrp">   -312.22785918 </i>
   <i name="e_0_energy">      0.00000000 </i>
  </energy>
  <time name="totalsc"> 1458.51 1464.67</time>
  <eigenvalues>
   <array>
    <dimension dim="1">band</dimension>
    <dimension dim="2">kpoint</dimension>
    <dimension dim="3">spin</dimension>
    <field>eigene</field>
    <field>occ</field>
    <set>
     <set comment="spin 1">
      <set comment="kpoint 1">
       <r>  -40.0942    1.0000 </r>
       <r>  -40.0917    1.0000 </r>
       <r>  -39.8083    1.0000 </r>
       <r>  -39.7561    1.0000 </r>
       <r>  -39.7138    1.0000 </r>
       <r>  -39.6355    1.0000 </r>
       <r>  -39.6331    1.0000 </r>
       <r>  -39.5631    1.0000 </r>
       <r>  -39.5605    1.0000 </r>
       <r>  -39.3592    1.0000 </r>
       <r>  -18.9142    1.0000 </r>
       <r>  -18.9110    1.0000 </r>
       <r>  -18.8452    1.0000 </r>
       <r>  -18.8435    1.0000 </r>
       <r>  -18.8380    1.0000 </r>
       <r>  -18.8363    1.0000 </r>
       <r>  -18.7448    1.0000 </r>
       <r>  -18.7421    1.0000 </r>
       <r>  -18.7231    1.0000 </r>
       <r>  -18.7204    1.0000 </r>
       <r>  -18.7123    1.0000 </r>
       <r>  -18.7114    1.0000 </r>
       <r>  -18.7026    1.0000 </r>
       <r>  -18.7019    1.0000 </r>
       <r>  -18.6962    1.0000 </r>
       <r>  -18.6953    1.0000 </r>
       <r>  -18.6499    1.0000 </r>
       <r>  -18.6461    1.0000 </r>
       <r>  -18.6430    1.0000 </r>
       <r>  -18.6410    1.0000 </r>
       <r>  -18.6398    1.0000 </r>
       <r>  -18.6390    1.0000 </r>
       <r>  -18.6381    1.0000 </r>
       <r>  -18.6350    1.0000 </r>
       <r>  -18.6346    1.0000 </r>
       <r>  -18.6344    1.0000 </r>
       <r>  -18.6308    1.0000 </r>
       <r>  -18.6307    1.0000 </r>
       <r>  -18.6298    1.0000 </r>
       <r>  -18.6293    1.0000 </r>
       <r>  -18.6291    1.0000 </r>
       <r>  -18.6280    1.0000 </r>
       <r>  -18.6247    1.0000 </r>
       <r>  -18.6231    1.0000 </r>
       <r>  -18.6221    1.0000 </r>
       <r>  -18.6209    1.0000 </r>
       <r>  -18.6199    1.0000 </r>
       <r>  -18.6190    1.0000 </r>
       <r>  -18.6157    1.0000 </r>
       <r>  -18.6141    1.0000 </r>
       <r>  -18.5610    1.0000 </r>
       <r>  -18.5596    1.0000 </r>
       <r>  -18.5563    1.0000 </r>
       <r>  -18.5552    1.0000 </r>
       <r>  -18.5476    1.0000 </r>
       <r>  -18.5462    1.0000 </r>
       <r>  -18.5390    1.0000 </r>
       <r>  -18.5384    1.0000 </r>
       <r>  -18.5346    1.0000 </r>
       <r>  -18.5333    1.0000 </r>
       <r>  -18.4964    1.0000 </r>
       <r>  -18.4917    1.0000 </r>
       <r>  -18.4816    1.0000 </r>
       <r>  -18.4815    1.0000 </r>
       <r>  -18.4813    1.0000 </r>
       <r>  -18.4768    1.0000 </r>
       <r>  -18.4765    1.0000 </r>
       <r>  -18.4760    1.0000 </r>
       <r>  -18.4754    1.0000 </r>
       <r>  -18.4753    1.0000 </r>
       <r>  -18.4745    1.0000 </r>
       <r>  -18.4742    1.0000 </r>
       <r>  -18.4677    1.0000 </r>
       <r>  -18.4665    1.0000 </r>
       <r>  -18.4618    1.0000 </r>
       <r>  -18.4614    1.0000 </r>
       <r>  -18.3991    1.0000 </r>
       <r>  -18.3979    1.0000 </r>
       <r>  -18.3884    1.0000 </r>
       <r>  -18.3879    1.0000 </r>
       <r>  -18.3876    1.0000 </r>
       <r>  -18.3860    1.0000 </r>
       <r>  -18.3753    1.0000 </r>
       <r>  -18.3749    1.0000 </r>
       <r>  -18.2961    1.0000 </r>
       <r>  -18.2955    1.0000 </r>
       <r>  -18.1814    1.0000 </r>
       <r>  -18.1806    1.0000 </r>
       <r>  -18.1677    1.0000 </r>
       <r>  -18.1664    1.0000 </r>
       <r>  -13.5453    1.0000 </r>
       <r>  -13.4470    1.0000 </r>
       <r>  -12.8877    1.0000 </r>
       <r>  -12.7970    1.0000 </r>
       <r>  -12.7947    1.0000 </r>
       <r>  -12.7508    1.0000 </r>
       <r>  -12.7049    1.0000 </r>
       <r>  -12.6980    1.0000 </r>
       <r>  -12.6866    1.0000 </r>
       <r>  -12.6703    1.0000 </r>
       <r>  -12.6324    1.0000 </r>
       <r>  -12.6154    1.0000 </r>
       <r>  -12.5633    1.0000 </r>
       <r>  -12.5220    1.0000 </r>
       <r>  -11.9538    1.0000 </r>
       <r>  -11.9005    1.0000 </r>
       <r>   -9.3179    1.0000 </r>
       <r>   -9.0233    1.0000 </r>
       <r>   -8.5190    1.0000 </r>
       <r>   -8.4955    1.0000 </r>
       <r>   -8.4782    1.0000 </r>
       <r>   -8.4337    1.0000 </r>
       <r>   -8.2971    1.0000 </r>
       <r>   -8.2746    1.0000 </r>
       <r>   -8.2516    1.0000 </r>
       <r>   -8.2101    1.0000 </r>
       <r>   -8.0198    1.0000 </r>
       <r>   -8.0190    1.0000 </r>
       <r>   -7.9841    1.0000 </r>
       <r>   -7.9815    1.0000 </r>
       <r>   -7.3480    1.0000 </r>
       <r>   -7.3463    1.0000 </r>
       <r>   -6.3592    1.0000 </r>
       <r>   -6.3575    1.0000 </r>
       <r>   -6.3352    1.0000 </r>
       <r>   -6.3311    1.0000 </r>
       <r>   -5.5159    1.0000 </r>
       <r>   -5.4822    1.0000 </r>
       <r>   -5.3550    1.0000 </r>
       <r>   -5.3302    1.0000 </r>
       <r>   -5.3259    1.0000 </r>
       <r>   -5.2432    1.0000 </r>
       <r>   -5.2002    1.0000 </r>
       <r>   -5.1613    1.0000 </r>
       <r>   -5.1136    1.0000 </r>
       <r>   -5.0491    1.0000 </r>
       <r>   -3.7972    1.0000 </r>
       <r>   -3.6432    1.0000 </r>
       <r>   -1.4516    1.0000 </r>
       <r>   -1.2967    1.0000 </r>
       <r>   -1.0976    1.0000 </r>
       <r>   -0.9882    1.0000 </r>
       <r>   -0.5369    1.0000 </r>
       <r>   -0.5195    1.0000 </r>
       <r>   -0.4860    1.0000 </r>
       <r>   -0.4388    1.0000 </r>
       <r>   -0.1765    1.0000 </r>
       <r>   -0.1720    1.0000 </r>
       <r>   -0.1453    1.0000 </r>
       <r>   -0.1251    1.0000 </r>
       <r>    0.1066    1.0000 </r>
       <r>    0.1166    1.0000 </r>
       <r>    0.2556    1.0000 </r>
       <r>    0.4034    1.0000 </r>
       <r>    0.5110    1.0000 </r>
       <r>    0.6271    1.0000 </r>
       <r>    0.6305    1.0000 </r>
       <r>    0.6971    1.0000 </r>
       <r>    0.7148    1.0000 </r>
       <r>    0.7470    1.0000 </r>
       <r>    0.7684    1.0000 </r>
       <r>    0.7719    1.0000 </r>
       <r>    0.8271    1.0000 </r>
       <r>    0.8795    1.0000 </r>
       <r>    0.9304    1.0000 </r>
       <r>    0.9931    1.0000 </r>
       <r>    0.9943    1.0000 </r>
       <r>    1.0153    1.0000 </r>
       <r>    1.0323    1.0000 </r>
       <r>    1.0870    1.0000 </r>
       <r>    1.2125    1.0000 </r>
       <r>    1.2489    1.0000 </r>
       <r>    1.3049    1.0000 </r>
       <r>    1.3206    1.0000 </r>
       <r>    1.4090    1.0000 </r>
       <r>    1.4260    1.0000 </r>
       <r>    1.4504    1.0000 </r>
       <r>    1.4896    1.0000 </r>
       <r>    1.5106    1.0000 </r>
       <r>    1.5312    1.0000 </r>
       <r>    1.6222    1.0000 </r>
       <r>    1.6778    1.0000 </r>
       <r>    1.6836    1.0000 </r>
       <r>    1.7598    1.0000 </r>
       <r>    1.7869    1.0000 </r>
       <r>    1.8288    1.0000 </r>
       <r>    1.8301    1.0000 </r>
       <r>    1.9061    1.0000 </r>
       <r>    1.9201    1.0000 </r>
       <r>    1.9890    1.0000 </r>
       <r>    2.1096    1.0000 </r>
       <r>    2.1889    1.0000 </r>
       <r>    2.2022    1.0000 </r>
       <r>    2.2508    1.0000 </r>
       <r>    2.3295    1.0000 </r>
       <r>    2.3978    1.0000 </r>
       <r>    2.5658    1.0000 </r>
       <r>    2.5785    1.0000 </r>
       <r>    2.5808    1.0000 </r>
       <r>    2.5979    1.0000 </r>
       <r>    2.6074    1.0000 </r>
       <r>    2.6203    1.0000 </r>
       <r>    2.6370    1.0000 </r>
       <r>    2.6738    1.0000 </r>
       <r>    2.7004    1.0000 </r>
       <r>    2.7214    1.0000 </r>
       <r>    2.7444    1.0000 </r>
       <r>    2.7831    1.0000 </r>
       <r>    2.8112    1.0000 </r>
       <r>    2.8158    1.0000 </r>
       <r>    2.8538    1.0000 </r>
       <r>    2.9139    1.0000 </r>
       <r>    2.9244    1.0000 </r>
       <r>    2.9526    1.0000 </r>
       <r>    2.9576    1.0000 </r>
       <r>    2.9904    1.0000 </r>
       <r>    3.0431    1.0000 </r>
       <r>    3.1049    1.0000 </r>
       <r>    3.1099    1.0000 </r>
       <r>    3.1663    1.0000 </r>
       <r>    3.1672    1.0000 </r>
       <r>    3.1739    1.0000 </r>
       <r>    3.1897    1.0000 </r>
       <r>    3.2440    1.0000 </r>
       <r>    3.3012    1.0000 </r>
       <r>    3.3355    1.0000 </r>
       <r>    3.4083    1.0000 </r>
       <r>    3.4391    1.0000 </r>
       <r>    3.4602    1.0000 </r>
       <r>    3.5891    1.0000 </r>
       <r>    4.1956    1.0000 </r>
       <r>    4.2002    1.0000 </r>
       <r>    4.2327    1.0000 </r>
       <r>    4.2408    1.0000 </r>
       <r>    5.0598    0.0000 </r>
       <r>    5.0623    0.0000 </r>
       <r>    5.1669    0.0000 </r>
       <r>    5.1909    0.0000 </r>
       <r>    5.7480    0.0000 </r>
       <r>    5.7553    0.0000 </r>
       <r>    5.8276    0.0000 </r>
       <r>    5.8325    0.0000 </r>
       <r>    6.1030    0.0000 </r>
       <r>    6.1251    0.0000 </r>
       <r>    6.1472    0.0000 </r>
       <r>    6.1505    0.0000 </r>
       <r>    6.2404    0.0000 </r>
       <r>    6.2523    0.0000 </r>
       <r>    6.2756    0.0000 </r>
       <r>    6.2790    0.0000 </r>
       <r>    7.1029    0.0000 </r>
       <r>    7.1319    0.0000 </r>
       <r>    7.3307    0.0000 </r>
       <r>    7.3409    0.0000 </r>
       <r>    7.8170    0.0000 </r>
       <r>    7.8496    0.0000 </r>
       <r>    7.9301    0.0000 </r>
       <r>    7.9608    0.0000 </r>
       <r>    7.9846    0.0000 </r>
       <r>    8.0462    0.0000 </r>
       <r>    8.1417    0.0000 </r>
       <r>    8.2044    0.0000 </r>
       <r>    8.4041    0.0000 </r>
       <r>    8.6436    0.0000 </r>
       <r>    8.6783    0.0000 </r>
       <r>    8.7907    0.0000 </r>
       <r>    8.7972    0.0000 </r>
       <r>    8.8697    0.0000 </r>
       <r>    8.9506    0.0000 </r>
       <r>    8.9951    0.0000 </r>
       <r>    9.0147    0.0000 </r>
       <r>    9.0727    0.0000 </r>
       <r>    9.1181    0.0000 </r>
       <r>    9.1217    0.0000 </r>
       <r>    9.1422    0.0000 </r>
       <r>    9.1850    0.0000 </r>
       <r>    9.2184    0.0000 </r>
       <r>    9.2517    0.0000 </r>
       <r>    9.4384    0.0000 </r>
       <r>    9.5250    0.0000 </r>
      </set>
      <set comment="kpoint 2">
       <r>  -40.0942    1.0000 </r>
       <r>  -40.0917    1.0000 </r>
       <r>  -39.8083    1.0000 </r>
       <r>  -39.7561    1.0000 </r>
       <r>  -39.7138    1.0000 </r>
       <r>  -39.6355    1.0000 </r>
       <r>  -39.6330    1.0000 </r>
       <r>  -39.5631    1.0000 </r>
       <r>  -39.5605    1.0000 </r>
       <r>  -39.3592    1.0000 </r>
       <r>  -18.9142    1.0000 </r>
       <r>  -18.9110    1.0000 </r>
       <r>  -18.8451    1.0000 </r>
       <r>  -18.8434    1.0000 </r>
       <r>  -18.8380    1.0000 </r>
       <r>  -18.8363    1.0000 </r>
       <r>  -18.7448    1.0000 </r>
       <r>  -18.7421    1.0000 </r>
       <r>  -18.7231    1.0000 </r>
       <r>  -18.7204    1.0000 </r>
       <r>  -18.7124    1.0000 </r>
       <r>  -18.7115    1.0000 </r>
       <r>  -18.7026    1.0000 </r>
       <r>  -18.7019    1.0000 </r>
       <r>  -18.6961    1.0000 </r>
       <r>  -18.6952    1.0000 </r>
       <r>  -18.6496    1.0000 </r>
       <r>  -18.6455    1.0000 </r>
       <r>  -18.6430    1.0000 </r>
       <r>  -18.6413    1.0000 </r>
       <r>  -18.6399    1.0000 </r>
       <r>  -18.6386    1.0000 </r>
       <r>  -18.6375    1.0000 </r>
       <r>  -18.6364    1.0000 </r>
       <r>  -18.6347    1.0000 </r>
       <r>  -18.6326    1.0000 </r>
       <r>  -18.6325    1.0000 </r>
       <r>  -18.6310    1.0000 </r>
       <r>  -18.6302    1.0000 </r>
       <r>  -18.6295    1.0000 </r>
       <r>  -18.6290    1.0000 </r>
       <r>  -18.6284    1.0000 </r>
       <r>  -18.6246    1.0000 </r>
       <r>  -18.6237    1.0000 </r>
       <r>  -18.6217    1.0000 </r>
       <r>  -18.6208    1.0000 </r>
       <r>  -18.6194    1.0000 </r>
       <r>  -18.6188    1.0000 </r>
       <r>  -18.6153    1.0000 </r>
       <r>  -18.6142    1.0000 </r>
       <r>  -18.5610    1.0000 </r>
       <r>  -18.5596    1.0000 </r>
       <r>  -18.5563    1.0000 </r>
       <r>  -18.5552    1.0000 </r>
       <r>  -18.5476    1.0000 </r>
       <r>  -18.5463    1.0000 </r>
       <r>  -18.5390    1.0000 </r>
       <r>  -18.5384    1.0000 </r>
       <r>  -18.5346    1.0000 </r>
       <r>  -18.5333    1.0000 </r>
       <r>  -18.4964    1.0000 </r>
       <r>  -18.4917    1.0000 </r>
       <r>  -18.4816    1.0000 </r>
       <r>  -18.4815    1.0000 </r>
       <r>  -18.4813    1.0000 </r>
       <r>  -18.4768    1.0000 </r>
       <r>  -18.4765    1.0000 </r>
       <r>  -18.4759    1.0000 </r>
       <r>  -18.4754    1.0000 </r>
       <r>  -18.4753    1.0000 </r>
       <r>  -18.4746    1.0000 </r>
       <r>  -18.4742    1.0000 </r>
       <r>  -18.4677    1.0000 </r>
       <r>  -18.4665    1.0000 </r>
       <r>  -18.4617    1.0000 </r>
       <r>  -18.4615    1.0000 </r>
       <r>  -18.3991    1.0000 </r>
       <r>  -18.3979    1.0000 </r>
       <r>  -18.3884    1.0000 </r>
       <r>  -18.3879    1.0000 </r>
       <r>  -18.3877    1.0000 </r>
       <r>  -18.3859    1.0000 </r>
       <r>  -18.3753    1.0000 </r>
       <r>  -18.3750    1.0000 </r>
       <r>  -18.2962    1.0000 </r>
       <r>  -18.2955    1.0000 </r>
       <r>  -18.1814    1.0000 </r>
       <r>  -18.1806    1.0000 </r>
       <r>  -18.1677    1.0000 </r>
       <r>  -18.1664    1.0000 </r>
       <r>  -13.5441    1.0000 </r>
       <r>  -13.4484    1.0000 </r>
       <r>  -12.8845    1.0000 </r>
       <r>  -12.8078    1.0000 </r>
       <r>  -12.7835    1.0000 </r>
       <r>  -12.7356    1.0000 </r>
       <r>  -12.7297    1.0000 </r>
       <r>  -12.7215    1.0000 </r>
       <r>  -12.6686    1.0000 </r>
       <r>  -12.6447    1.0000 </r>
       <r>  -12.6411    1.0000 </r>
       <r>  -12.6204    1.0000 </r>
       <r>  -12.5629    1.0000 </r>
       <r>  -12.5228    1.0000 </r>
       <r>  -11.9545    1.0000 </r>
       <r>  -11.8999    1.0000 </r>
       <r>   -9.1135    1.0000 </r>
       <r>   -9.0963    1.0000 </r>
       <r>   -8.8393    1.0000 </r>
       <r>   -8.8203    1.0000 </r>
       <r>   -8.3142    1.0000 </r>
       <r>   -8.3125    1.0000 </r>
       <r>   -8.3082    1.0000 </r>
       <r>   -8.2974    1.0000 </r>
       <r>   -8.1259    1.0000 </r>
       <r>   -8.1250    1.0000 </r>
       <r>   -8.1222    1.0000 </r>
       <r>   -8.1123    1.0000 </r>
       <r>   -7.6810    1.0000 </r>
       <r>   -7.6787    1.0000 </r>
       <r>   -7.5707    1.0000 </r>
       <r>   -7.5692    1.0000 </r>
       <r>   -5.9652    1.0000 </r>
       <r>   -5.9271    1.0000 </r>
       <r>   -5.8840    1.0000 </r>
       <r>   -5.8783    1.0000 </r>
       <r>   -5.8396    1.0000 </r>
       <r>   -5.7646    1.0000 </r>
       <r>   -5.7346    1.0000 </r>
       <r>   -5.7278    1.0000 </r>
       <r>   -5.6301    1.0000 </r>
       <r>   -5.5809    1.0000 </r>
       <r>   -5.4946    1.0000 </r>
       <r>   -5.4777    1.0000 </r>
       <r>   -4.4189    1.0000 </r>
       <r>   -4.4075    1.0000 </r>
       <r>   -4.2484    1.0000 </r>
       <r>   -4.2399    1.0000 </r>
       <r>   -1.1659    1.0000 </r>
       <r>   -1.1111    1.0000 </r>
       <r>   -0.8066    1.0000 </r>
       <r>   -0.7917    1.0000 </r>
       <r>   -0.4658    1.0000 </r>
       <r>   -0.3461    1.0000 </r>
       <r>    0.0287    1.0000 </r>
       <r>    0.0300    1.0000 </r>
       <r>    0.0895    1.0000 </r>
       <r>    0.1059    1.0000 </r>
       <r>    0.1846    1.0000 </r>
       <r>    0.1951    1.0000 </r>
       <r>    0.2175    1.0000 </r>
       <r>    0.3260    1.0000 </r>
       <r>    0.3306    1.0000 </r>
       <r>    0.3503    1.0000 </r>
       <r>    0.5321    1.0000 </r>
       <r>    0.5812    1.0000 </r>
       <r>    0.5844    1.0000 </r>
       <r>    0.6218    1.0000 </r>
       <r>    0.6245    1.0000 </r>
       <r>    0.6407    1.0000 </r>
       <r>    0.7077    1.0000 </r>
       <r>    0.7128    1.0000 </r>
       <r>    0.7315    1.0000 </r>
       <r>    0.7451    1.0000 </r>
       <r>    0.8504    1.0000 </r>
       <r>    0.9564    1.0000 </r>
       <r>    0.9750    1.0000 </r>
       <r>    1.0418    1.0000 </r>
       <r>    1.1193    1.0000 </r>
       <r>    1.1374    1.0000 </r>
       <r>    1.2119    1.0000 </r>
       <r>    1.2378    1.0000 </r>
       <r>    1.2444    1.0000 </r>
       <r>    1.2841    1.0000 </r>
       <r>    1.3336    1.0000 </r>
       <r>    1.4039    1.0000 </r>
       <r>    1.4704    1.0000 </r>
       <r>    1.4786    1.0000 </r>
       <r>    1.4894    1.0000 </r>
       <r>    1.4928    1.0000 </r>
       <r>    1.6084    1.0000 </r>
       <r>    1.6293    1.0000 </r>
       <r>    1.6626    1.0000 </r>
       <r>    1.7093    1.0000 </r>
       <r>    1.7256    1.0000 </r>
       <r>    1.7352    1.0000 </r>
       <r>    1.8352    1.0000 </r>
       <r>    1.9108    1.0000 </r>
       <r>    1.9489    1.0000 </r>
       <r>    1.9536    1.0000 </r>
       <r>    2.0014    1.0000 </r>
       <r>    2.0035    1.0000 </r>
       <r>    2.0361    1.0000 </r>
       <r>    2.0667    1.0000 </r>
       <r>    2.1022    1.0000 </r>
       <r>    2.1444    1.0000 </r>
       <r>    2.1605    1.0000 </r>
       <r>    2.3049    1.0000 </r>
       <r>    2.3656    1.0000 </r>
       <r>    2.3720    1.0000 </r>
       <r>    2.4445    1.0000 </r>
       <r>    2.4574    1.0000 </r>
       <r>    2.5424    1.0000 </r>
       <r>    2.5589    1.0000 </r>
       <r>    2.6131    1.0000 </r>
       <r>    2.6147    1.0000 </r>
       <r>    2.6304    1.0000 </r>
       <r>    2.6665    1.0000 </r>
       <r>    2.7029    1.0000 </r>
       <r>    2.7406    1.0000 </r>
       <r>    2.7954    1.0000 </r>
       <r>    2.8091    1.0000 </r>
       <r>    2.8136    1.0000 </r>
       <r>    2.8721    1.0000 </r>
       <r>    2.9118    1.0000 </r>
       <r>    2.9312    1.0000 </r>
       <r>    2.9326    1.0000 </r>
       <r>    2.9768    1.0000 </r>
       <r>    3.0415    1.0000 </r>
       <r>    3.0815    1.0000 </r>
       <r>    3.0999    1.0000 </r>
       <r>    3.1240    1.0000 </r>
       <r>    3.1728    1.0000 </r>
       <r>    3.1857    1.0000 </r>
       <r>    3.2945    1.0000 </r>
       <r>    3.3094    1.0000 </r>
       <r>    3.5012    1.0000 </r>
       <r>    3.5132    1.0000 </r>
       <r>    3.5477    1.0000 </r>
       <r>    3.5711    1.0000 </r>
       <r>    3.5723    1.0000 </r>
       <r>    3.5918    1.0000 </r>
       <r>    3.6123    1.0000 </r>
       <r>    3.7886    1.0000 </r>
       <r>    5.6748    0.0000 </r>
       <r>    5.6853    0.0000 </r>
       <r>    5.6989    0.0000 </r>
       <r>    5.7025    0.0000 </r>
       <r>    5.7787    0.0000 </r>
       <r>    5.7829    0.0000 </r>
       <r>    5.7963    0.0000 </r>
       <r>    5.8051    0.0000 </r>
       <r>    7.2274    0.0000 </r>
       <r>    7.2386    0.0000 </r>
       <r>    7.2909    0.0000 </r>
       <r>    7.3353    0.0000 </r>
       <r>    7.4022    0.0000 </r>
       <r>    7.4291    0.0000 </r>
       <r>    7.4405    0.0000 </r>
       <r>    7.4648    0.0000 </r>
       <r>    7.4988    0.0000 </r>
       <r>    7.5010    0.0000 </r>
       <r>    7.5329    0.0000 </r>
       <r>    7.5519    0.0000 </r>
       <r>    7.8391    0.0000 </r>
       <r>    7.8549    0.0000 </r>
       <r>    7.8662    0.0000 </r>
       <r>    7.8751    0.0000 </r>
       <r>    7.8771    0.0000 </r>
       <r>    7.9247    0.0000 </r>
       <r>    7.9483    0.0000 </r>
       <r>    7.9725    0.0000 </r>
       <r>    8.0028    0.0000 </r>
       <r>    8.0319    0.0000 </r>
       <r>    8.0914    0.0000 </r>
       <r>    8.1402    0.0000 </r>
       <r>    8.3211    0.0000 </r>
       <r>    8.3793    0.0000 </r>
       <r>    8.4617    0.0000 </r>
       <r>    8.5299    0.0000 </r>
       <r>    8.6885    0.0000 </r>
       <r>    8.7021    0.0000 </r>
       <r>    8.7727    0.0000 </r>
       <r>    8.7732    0.0000 </r>
       <r>    8.8319    0.0000 </r>
       <r>    8.8330    0.0000 </r>
       <r>    8.9337    0.0000 </r>
       <r>    8.9429    0.0000 </r>
       <r>    9.2043    0.0000 </r>
       <r>    9.2282    0.0000 </r>
      </set>
      <set comment="kpoint 3">
       <r>  -40.0942    1.0000 </r>
       <r>  -40.0916    1.0000 </r>
       <r>  -39.8083    1.0000 </r>
       <r>  -39.7561    1.0000 </r>
       <r>  -39.7138    1.0000 </r>
       <r>  -39.6355    1.0000 </r>
       <r>  -39.6331    1.0000 </r>
       <r>  -39.5631    1.0000 </r>
       <r>  -39.5605    1.0000 </r>
       <r>  -39.3592    1.0000 </r>
       <r>  -18.9143    1.0000 </r>
       <r>  -18.9108    1.0000 </r>
       <r>  -18.8452    1.0000 </r>
       <r>  -18.8435    1.0000 </r>
       <r>  -18.8380    1.0000 </r>
       <r>  -18.8363    1.0000 </r>
       <r>  -18.7448    1.0000 </r>
       <r>  -18.7421    1.0000 </r>
       <r>  -18.7231    1.0000 </r>
       <r>  -18.7204    1.0000 </r>
       <r>  -18.7123    1.0000 </r>
       <r>  -18.7114    1.0000 </r>
       <r>  -18.7026    1.0000 </r>
       <r>  -18.7020    1.0000 </r>
       <r>  -18.6960    1.0000 </r>
       <r>  -18.6955    1.0000 </r>
       <r>  -18.6499    1.0000 </r>
       <r>  -18.6460    1.0000 </r>
       <r>  -18.6431    1.0000 </r>
       <r>  -18.6410    1.0000 </r>
       <r>  -18.6398    1.0000 </r>
       <r>  -18.6390    1.0000 </r>
       <r>  -18.6381    1.0000 </r>
       <r>  -18.6350    1.0000 </r>
       <r>  -18.6346    1.0000 </r>
       <r>  -18.6343    1.0000 </r>
       <r>  -18.6308    1.0000 </r>
       <r>  -18.6307    1.0000 </r>
       <r>  -18.6298    1.0000 </r>
       <r>  -18.6293    1.0000 </r>
       <r>  -18.6291    1.0000 </r>
       <r>  -18.6280    1.0000 </r>
       <r>  -18.6247    1.0000 </r>
       <r>  -18.6231    1.0000 </r>
       <r>  -18.6222    1.0000 </r>
       <r>  -18.6210    1.0000 </r>
       <r>  -18.6198    1.0000 </r>
       <r>  -18.6190    1.0000 </r>
       <r>  -18.6157    1.0000 </r>
       <r>  -18.6141    1.0000 </r>
       <r>  -18.5610    1.0000 </r>
       <r>  -18.5596    1.0000 </r>
       <r>  -18.5563    1.0000 </r>
       <r>  -18.5552    1.0000 </r>
       <r>  -18.5476    1.0000 </r>
       <r>  -18.5462    1.0000 </r>
       <r>  -18.5390    1.0000 </r>
       <r>  -18.5384    1.0000 </r>
       <r>  -18.5348    1.0000 </r>
       <r>  -18.5331    1.0000 </r>
       <r>  -18.4964    1.0000 </r>
       <r>  -18.4917    1.0000 </r>
       <r>  -18.4816    1.0000 </r>
       <r>  -18.4815    1.0000 </r>
       <r>  -18.4813    1.0000 </r>
       <r>  -18.4768    1.0000 </r>
       <r>  -18.4765    1.0000 </r>
       <r>  -18.4760    1.0000 </r>
       <r>  -18.4754    1.0000 </r>
       <r>  -18.4753    1.0000 </r>
       <r>  -18.4745    1.0000 </r>
       <r>  -18.4742    1.0000 </r>
       <r>  -18.4677    1.0000 </r>
       <r>  -18.4665    1.0000 </r>
       <r>  -18.4618    1.0000 </r>
       <r>  -18.4614    1.0000 </r>
       <r>  -18.3991    1.0000 </r>
       <r>  -18.3979    1.0000 </r>
       <r>  -18.3884    1.0000 </r>
       <r>  -18.3879    1.0000 </r>
       <r>  -18.3876    1.0000 </r>
       <r>  -18.3860    1.0000 </r>
       <r>  -18.3753    1.0000 </r>
       <r>  -18.3750    1.0000 </r>
       <r>  -18.2963    1.0000 </r>
       <r>  -18.2953    1.0000 </r>
       <r>  -18.1814    1.0000 </r>
       <r>  -18.1806    1.0000 </r>
       <r>  -18.1676    1.0000 </r>
       <r>  -18.1665    1.0000 </r>
       <r>  -13.5451    1.0000 </r>
       <r>  -13.4472    1.0000 </r>
       <r>  -12.8862    1.0000 </r>
       <r>  -12.7973    1.0000 </r>
       <r>  -12.7942    1.0000 </r>
       <r>  -12.7502    1.0000 </r>
       <r>  -12.7051    1.0000 </r>
       <r>  -12.6982    1.0000 </r>
       <r>  -12.6864    1.0000 </r>
       <r>  -12.6703    1.0000 </r>
       <r>  -12.6340    1.0000 </r>
       <r>  -12.6161    1.0000 </r>
       <r>  -12.5633    1.0000 </r>
       <r>  -12.5229    1.0000 </r>
       <r>  -11.9529    1.0000 </r>
       <r>  -11.9020    1.0000 </r>
       <r>   -9.3081    1.0000 </r>
       <r>   -9.0301    1.0000 </r>
       <r>   -8.5380    1.0000 </r>
       <r>   -8.5124    1.0000 </r>
       <r>   -8.4962    1.0000 </r>
       <r>   -8.4513    1.0000 </r>
       <r>   -8.2760    1.0000 </r>
       <r>   -8.2561    1.0000 </r>
       <r>   -8.2309    1.0000 </r>
       <r>   -8.1907    1.0000 </r>
       <r>   -8.0241    1.0000 </r>
       <r>   -8.0227    1.0000 </r>
       <r>   -7.9871    1.0000 </r>
       <r>   -7.9843    1.0000 </r>
       <r>   -7.3508    1.0000 </r>
       <r>   -7.3491    1.0000 </r>
       <r>   -6.3513    1.0000 </r>
       <r>   -6.3459    1.0000 </r>
       <r>   -6.3275    1.0000 </r>
       <r>   -6.3195    1.0000 </r>
       <r>   -5.5315    1.0000 </r>
       <r>   -5.4670    1.0000 </r>
       <r>   -5.3915    1.0000 </r>
       <r>   -5.3768    1.0000 </r>
       <r>   -5.3700    1.0000 </r>
       <r>   -5.2619    1.0000 </r>
       <r>   -5.1463    1.0000 </r>
       <r>   -5.1043    1.0000 </r>
       <r>   -5.0693    1.0000 </r>
       <r>   -5.0025    1.0000 </r>
       <r>   -3.8696    1.0000 </r>
       <r>   -3.5595    1.0000 </r>
       <r>   -1.3529    1.0000 </r>
       <r>   -1.2580    1.0000 </r>
       <r>   -1.2336    1.0000 </r>
       <r>   -1.0391    1.0000 </r>
       <r>   -0.4263    1.0000 </r>
       <r>   -0.4248    1.0000 </r>
       <r>   -0.3959    1.0000 </r>
       <r>   -0.3763    1.0000 </r>
       <r>   -0.3512    1.0000 </r>
       <r>   -0.3242    1.0000 </r>
       <r>   -0.2741    1.0000 </r>
       <r>   -0.2142    1.0000 </r>
       <r>   -0.1256    1.0000 </r>
       <r>    0.0405    1.0000 </r>
       <r>    0.1055    1.0000 </r>
       <r>    0.2488    1.0000 </r>
       <r>    0.3107    1.0000 </r>
       <r>    0.3143    1.0000 </r>
       <r>    0.4071    1.0000 </r>
       <r>    0.4891    1.0000 </r>
       <r>    0.5153    1.0000 </r>
       <r>    0.5609    1.0000 </r>
       <r>    0.7334    1.0000 </r>
       <r>    0.7420    1.0000 </r>
       <r>    0.7640    1.0000 </r>
       <r>    0.8401    1.0000 </r>
       <r>    0.8415    1.0000 </r>
       <r>    0.9618    1.0000 </r>
       <r>    1.0071    1.0000 </r>
       <r>    1.1011    1.0000 </r>
       <r>    1.1095    1.0000 </r>
       <r>    1.1760    1.0000 </r>
       <r>    1.2662    1.0000 </r>
       <r>    1.3609    1.0000 </r>
       <r>    1.4852    1.0000 </r>
       <r>    1.5010    1.0000 </r>
       <r>    1.5763    1.0000 </r>
       <r>    1.5820    1.0000 </r>
       <r>    1.6370    1.0000 </r>
       <r>    1.6653    1.0000 </r>
       <r>    1.6769    1.0000 </r>
       <r>    1.7207    1.0000 </r>
       <r>    1.7587    1.0000 </r>
       <r>    1.7869    1.0000 </r>
       <r>    1.8207    1.0000 </r>
       <r>    1.8261    1.0000 </r>
       <r>    1.8632    1.0000 </r>
       <r>    1.9522    1.0000 </r>
       <r>    2.0019    1.0000 </r>
       <r>    2.0153    1.0000 </r>
       <r>    2.0492    1.0000 </r>
       <r>    2.0941    1.0000 </r>
       <r>    2.1392    1.0000 </r>
       <r>    2.2263    1.0000 </r>
       <r>    2.2391    1.0000 </r>
       <r>    2.3087    1.0000 </r>
       <r>    2.4607    1.0000 </r>
       <r>    2.4930    1.0000 </r>
       <r>    2.5329    1.0000 </r>
       <r>    2.5608    1.0000 </r>
       <r>    2.5630    1.0000 </r>
       <r>    2.5790    1.0000 </r>
       <r>    2.5859    1.0000 </r>
       <r>    2.5911    1.0000 </r>
       <r>    2.6019    1.0000 </r>
       <r>    2.6058    1.0000 </r>
       <r>    2.6708    1.0000 </r>
       <r>    2.6974    1.0000 </r>
       <r>    2.7552    1.0000 </r>
       <r>    2.7960    1.0000 </r>
       <r>    2.8051    1.0000 </r>
       <r>    2.8274    1.0000 </r>
       <r>    2.8315    1.0000 </r>
       <r>    2.8394    1.0000 </r>
       <r>    2.8945    1.0000 </r>
       <r>    2.9111    1.0000 </r>
       <r>    2.9623    1.0000 </r>
       <r>    2.9673    1.0000 </r>
       <r>    3.0136    1.0000 </r>
       <r>    3.0342    1.0000 </r>
       <r>    3.0627    1.0000 </r>
       <r>    3.0787    1.0000 </r>
       <r>    3.1707    1.0000 </r>
       <r>    3.2845    1.0000 </r>
       <r>    3.3506    1.0000 </r>
       <r>    3.3925    1.0000 </r>
       <r>    3.4220    1.0000 </r>
       <r>    3.4527    1.0000 </r>
       <r>    3.4541    1.0000 </r>
       <r>    3.4647    1.0000 </r>
       <r>    3.5065    1.0000 </r>
       <r>    3.6025    1.0000 </r>
       <r>    4.2445    1.0000 </r>
       <r>    4.2487    1.0000 </r>
       <r>    4.2860    1.0000 </r>
       <r>    4.2903    1.0000 </r>
       <r>    5.1325    0.0000 </r>
       <r>    5.1362    0.0000 </r>
       <r>    5.2383    0.0000 </r>
       <r>    5.2440    0.0000 </r>
       <r>    5.7552    0.0000 </r>
       <r>    5.7644    0.0000 </r>
       <r>    5.8350    0.0000 </r>
       <r>    5.8393    0.0000 </r>
       <r>    6.1658    0.0000 </r>
       <r>    6.1793    0.0000 </r>
       <r>    6.1913    0.0000 </r>
       <r>    6.2061    0.0000 </r>
       <r>    6.2484    0.0000 </r>
       <r>    6.2653    0.0000 </r>
       <r>    6.2876    0.0000 </r>
       <r>    6.2912    0.0000 </r>
       <r>    6.7931    0.0000 </r>
       <r>    6.7988    0.0000 </r>
       <r>    7.0528    0.0000 </r>
       <r>    7.1013    0.0000 </r>
       <r>    7.2011    0.0000 </r>
       <r>    7.3862    0.0000 </r>
       <r>    7.4571    0.0000 </r>
       <r>    7.5435    0.0000 </r>
       <r>    7.7859    0.0000 </r>
       <r>    7.8343    0.0000 </r>
       <r>    7.9357    0.0000 </r>
       <r>    7.9880    0.0000 </r>
       <r>    8.0285    0.0000 </r>
       <r>    8.3123    0.0000 </r>
       <r>    8.3420    0.0000 </r>
       <r>    8.4608    0.0000 </r>
       <r>    8.6972    0.0000 </r>
       <r>    8.7733    0.0000 </r>
       <r>    8.9503    0.0000 </r>
       <r>    9.0289    0.0000 </r>
       <r>    9.0307    0.0000 </r>
       <r>    9.0471    0.0000 </r>
       <r>    9.0729    0.0000 </r>
       <r>    9.1028    0.0000 </r>
       <r>    9.1098    0.0000 </r>
       <r>    9.1596    0.0000 </r>
       <r>    9.1715    0.0000 </r>
       <r>    9.2131    0.0000 </r>
       <r>    9.4768    0.0000 </r>
       <r>    9.5383    0.0000 </r>
      </set>
      <set comment="kpoint 4">
       <r>  -40.0942    1.0000 </r>
       <r>  -40.0916    1.0000 </r>
       <r>  -39.8083    1.0000 </r>
       <r>  -39.7561    1.0000 </r>
       <r>  -39.7137    1.0000 </r>
       <r>  -39.6355    1.0000 </r>
       <r>  -39.6330    1.0000 </r>
       <r>  -39.5630    1.0000 </r>
       <r>  -39.5605    1.0000 </r>
       <r>  -39.3592    1.0000 </r>
       <r>  -18.9143    1.0000 </r>
       <r>  -18.9108    1.0000 </r>
       <r>  -18.8451    1.0000 </r>
       <r>  -18.8434    1.0000 </r>
       <r>  -18.8380    1.0000 </r>
       <r>  -18.8363    1.0000 </r>
       <r>  -18.7448    1.0000 </r>
       <r>  -18.7421    1.0000 </r>
       <r>  -18.7231    1.0000 </r>
       <r>  -18.7204    1.0000 </r>
       <r>  -18.7124    1.0000 </r>
       <r>  -18.7115    1.0000 </r>
       <r>  -18.7026    1.0000 </r>
       <r>  -18.7019    1.0000 </r>
       <r>  -18.6959    1.0000 </r>
       <r>  -18.6955    1.0000 </r>
       <r>  -18.6495    1.0000 </r>
       <r>  -18.6455    1.0000 </r>
       <r>  -18.6430    1.0000 </r>
       <r>  -18.6413    1.0000 </r>
       <r>  -18.6399    1.0000 </r>
       <r>  -18.6386    1.0000 </r>
       <r>  -18.6375    1.0000 </r>
       <r>  -18.6364    1.0000 </r>
       <r>  -18.6347    1.0000 </r>
       <r>  -18.6326    1.0000 </r>
       <r>  -18.6325    1.0000 </r>
       <r>  -18.6310    1.0000 </r>
       <r>  -18.6302    1.0000 </r>
       <r>  -18.6295    1.0000 </r>
       <r>  -18.6290    1.0000 </r>
       <r>  -18.6284    1.0000 </r>
       <r>  -18.6246    1.0000 </r>
       <r>  -18.6238    1.0000 </r>
       <r>  -18.6218    1.0000 </r>
       <r>  -18.6208    1.0000 </r>
       <r>  -18.6193    1.0000 </r>
       <r>  -18.6189    1.0000 </r>
       <r>  -18.6153    1.0000 </r>
       <r>  -18.6141    1.0000 </r>
       <r>  -18.5610    1.0000 </r>
       <r>  -18.5596    1.0000 </r>
       <r>  -18.5563    1.0000 </r>
       <r>  -18.5552    1.0000 </r>
       <r>  -18.5477    1.0000 </r>
       <r>  -18.5463    1.0000 </r>
       <r>  -18.5390    1.0000 </r>
       <r>  -18.5384    1.0000 </r>
       <r>  -18.5348    1.0000 </r>
       <r>  -18.5331    1.0000 </r>
       <r>  -18.4964    1.0000 </r>
       <r>  -18.4917    1.0000 </r>
       <r>  -18.4816    1.0000 </r>
       <r>  -18.4815    1.0000 </r>
       <r>  -18.4813    1.0000 </r>
       <r>  -18.4768    1.0000 </r>
       <r>  -18.4765    1.0000 </r>
       <r>  -18.4759    1.0000 </r>
       <r>  -18.4754    1.0000 </r>
       <r>  -18.4753    1.0000 </r>
[...]
       <r>    8.8709    0.0000 </r>
       <r>    8.8900    0.0000 </r>
       <r>    8.9022    0.0000 </r>
       <r>    8.9129    0.0000 </r>
       <r>    8.9539    0.0000 </r>
      </set>
     </set>
    </set>
   </array>
  </eigenvalues>
  <separator name="orbital magnetization" >
   <v name="MAGDIPOLOUT">      0.00000000      0.00000000      0.00000000</v>
  </separator>
  <dos>
   <i name="efermi">      4.42198628 </i>
   <total>
    <array>
     <dimension dim="1">gridpoints</dimension>
     <dimension dim="2">spin</dimension>
     <field>energy</field>
     <field>total</field>
     <field>integrated</field>
     <set>
      <set comment="spin 1">
       <r>   -42.5759     0.0000     0.0000 </r>
       <r>   -42.3939     0.0000     0.0000 </r>
       <r>   -42.2119     0.0000     0.0000 </r>
       <r>   -42.0299     0.0000     0.0000 </r>
       <r>   -41.8479     0.0000     0.0000 </r>
       <r>   -41.6659     0.0000     0.0000 </r>
       <r>   -41.4840     0.0000     0.0000 </r>
       <r>   -41.3020     0.0000     0.0000 </r>
       <r>   -41.1200     0.0000     0.0000 </r>
       <r>   -40.9380     0.0000     0.0000 </r>
       <r>   -40.7560     0.0000     0.0000 </r>
       <r>   -40.5740     0.0000     0.0000 </r>
       <r>   -40.3920     0.0000     0.0000 </r>
       <r>   -40.2101     0.0000     0.0000 </r>
       <r>   -40.0281     0.0000     4.0000 </r>
       <r>   -39.8461     0.0000     4.0000 </r>
       <r>   -39.6641     0.0000    10.0000 </r>
       <r>   -39.4821     0.0000    18.0000 </r>
       <r>   -39.3001     0.0000    20.0000 </r>
       <r>   -39.1181     0.0000    20.0000 </r>
       <r>   -38.9362     0.0000    20.0000 </r>
       <r>   -38.7542     0.0000    20.0000 </r>
       <r>   -38.5722     0.0000    20.0000 </r>
       <r>   -38.3902     0.0000    20.0000 </r>
       <r>   -38.2082     0.0000    20.0000 </r>
       <r>   -38.0262     0.0000    20.0000 </r>
       <r>   -37.8442     0.0000    20.0000 </r>
       <r>   -37.6623     0.0000    20.0000 </r>
       <r>   -37.4803     0.0000    20.0000 </r>
       <r>   -37.2983     0.0000    20.0000 </r>
       <r>   -37.1163     0.0000    20.0000 </r>
       <r>   -36.9343     0.0000    20.0000 </r>
       <r>   -36.7523     0.0000    20.0000 </r>
       <r>   -36.5703     0.0000    20.0000 </r>
       <r>   -36.3884     0.0000    20.0000 </r>
       <r>   -36.2064     0.0000    20.0000 </r>
       <r>   -36.0244     0.0000    20.0000 </r>
       <r>   -35.8424     0.0000    20.0000 </r>
       <r>   -35.6604     0.0000    20.0000 </r>
       <r>   -35.4784     0.0000    20.0000 </r>
       <r>   -35.2964     0.0000    20.0000 </r>
       <r>   -35.1145     0.0000    20.0000 </r>
       <r>   -34.9325     0.0000    20.0000 </r>
       <r>   -34.7505     0.0000    20.0000 </r>
       <r>   -34.5685     0.0000    20.0000 </r>
       <r>   -34.3865     0.0000    20.0000 </r>
       <r>   -34.2045     0.0000    20.0000 </r>
       <r>   -34.0225     0.0000    20.0000 </r>
       <r>   -33.8405     0.0000    20.0000 </r>
       <r>   -33.6586     0.0000    20.0000 </r>
       <r>   -33.4766     0.0000    20.0000 </r>
       <r>   -33.2946     0.0000    20.0000 </r>
       <r>   -33.1126     0.0000    20.0000 </r>
       <r>   -32.9306     0.0000    20.0000 </r>
       <r>   -32.7486     0.0000    20.0000 </r>
       <r>   -32.5666     0.0000    20.0000 </r>
       <r>   -32.3847     0.0000    20.0000 </r>
       <r>   -32.2027     0.0000    20.0000 </r>
       <r>   -32.0207     0.0000    20.0000 </r>
       <r>   -31.8387     0.0000    20.0000 </r>
       <r>   -31.6567     0.0000    20.0000 </r>
       <r>   -31.4747     0.0000    20.0000 </r>
       <r>   -31.2927     0.0000    20.0000 </r>
       <r>   -31.1108     0.0000    20.0000 </r>
       <r>   -30.9288     0.0000    20.0000 </r>
       <r>   -30.7468     0.0000    20.0000 </r>
       <r>   -30.5648     0.0000    20.0000 </r>
       <r>   -30.3828     0.0000    20.0000 </r>
       <r>   -30.2008     0.0000    20.0000 </r>
       <r>   -30.0188     0.0000    20.0000 </r>
       <r>   -29.8369     0.0000    20.0000 </r>
       <r>   -29.6549     0.0000    20.0000 </r>
       <r>   -29.4729     0.0000    20.0000 </r>
       <r>   -29.2909     0.0000    20.0000 </r>
       <r>   -29.1089     0.0000    20.0000 </r>
       <r>   -28.9269     0.0000    20.0000 </r>
       <r>   -28.7449     0.0000    20.0000 </r>
       <r>   -28.5630     0.0000    20.0000 </r>
       <r>   -28.3810     0.0000    20.0000 </r>
       <r>   -28.1990     0.0000    20.0000 </r>
       <r>   -28.0170     0.0000    20.0000 </r>
       <r>   -27.8350     0.0000    20.0000 </r>
       <r>   -27.6530     0.0000    20.0000 </r>
       <r>   -27.4710     0.0000    20.0000 </r>
       <r>   -27.2891     0.0000    20.0000 </r>
       <r>   -27.1071     0.0000    20.0000 </r>
       <r>   -26.9251     0.0000    20.0000 </r>
       <r>   -26.7431     0.0000    20.0000 </r>
       <r>   -26.5611     0.0000    20.0000 </r>
       <r>   -26.3791     0.0000    20.0000 </r>
       <r>   -26.1971     0.0000    20.0000 </r>
       <r>   -26.0152     0.0000    20.0000 </r>
       <r>   -25.8332     0.0000    20.0000 </r>
       <r>   -25.6512     0.0000    20.0000 </r>
       <r>   -25.4692     0.0000    20.0000 </r>
       <r>   -25.2872     0.0000    20.0000 </r>
       <r>   -25.1052     0.0000    20.0000 </r>
       <r>   -24.9232     0.0000    20.0000 </r>
       <r>   -24.7413     0.0000    20.0000 </r>
       <r>   -24.5593     0.0000    20.0000 </r>
       <r>   -24.3773     0.0000    20.0000 </r>
       <r>   -24.1953     0.0000    20.0000 </r>
       <r>   -24.0133     0.0000    20.0000 </r>
       <r>   -23.8313     0.0000    20.0000 </r>
       <r>   -23.6493     0.0000    20.0000 </r>
       <r>   -23.4674     0.0000    20.0000 </r>
       <r>   -23.2854     0.0000    20.0000 </r>
       <r>   -23.1034     0.0000    20.0000 </r>
       <r>   -22.9214     0.0000    20.0000 </r>
       <r>   -22.7394     0.0000    20.0000 </r>
       <r>   -22.5574     0.0000    20.0000 </r>
       <r>   -22.3754     0.0000    20.0000 </r>
       <r>   -22.1935     0.0000    20.0000 </r>
       <r>   -22.0115     0.0000    20.0000 </r>
       <r>   -21.8295     0.0000    20.0000 </r>
       <r>   -21.6475     0.0000    20.0000 </r>
       <r>   -21.4655     0.0000    20.0000 </r>
       <r>   -21.2835     0.0000    20.0000 </r>
       <r>   -21.1015     0.0000    20.0000 </r>
       <r>   -20.9196     0.0000    20.0000 </r>
       <r>   -20.7376     0.0000    20.0000 </r>
       <r>   -20.5556     0.0000    20.0000 </r>
       <r>   -20.3736     0.0000    20.0000 </r>
       <r>   -20.1916     0.0000    20.0000 </r>
       <r>   -20.0096     0.0000    20.0000 </r>
       <r>   -19.8276     0.0000    20.0000 </r>
       <r>   -19.6456     0.0000    20.0000 </r>
       <r>   -19.4637     0.0000    20.0000 </r>
       <r>   -19.2817     0.0000    20.0000 </r>
       <r>   -19.0997     0.0000    20.0000 </r>
       <r>   -18.9177     0.0000    20.0000 </r>
       <r>   -18.7357     0.0000    36.0000 </r>
       <r>   -18.5537     0.0000   108.0000 </r>
       <r>   -18.3717     0.0000   168.0000 </r>
       <r>   -18.1898     0.0000   172.0000 </r>
       <r>   -18.0078     0.0000   180.0000 </r>
       <r>   -17.8258     0.0000   180.0000 </r>
       <r>   -17.6438     0.0000   180.0000 </r>
       <r>   -17.4618     0.0000   180.0000 </r>
       <r>   -17.2798     0.0000   180.0000 </r>
       <r>   -17.0978     0.0000   180.0000 </r>
       <r>   -16.9159     0.0000   180.0000 </r>
       <r>   -16.7339     0.0000   180.0000 </r>
       <r>   -16.5519     0.0000   180.0000 </r>
       <r>   -16.3699     0.0000   180.0000 </r>
       <r>   -16.1879     0.0000   180.0000 </r>
       <r>   -16.0059     0.0000   180.0000 </r>
       <r>   -15.8239     0.0000   180.0000 </r>
       <r>   -15.6420     0.0000   180.0000 </r>
       <r>   -15.4600     0.0000   180.0000 </r>
       <r>   -15.2780     0.0000   180.0000 </r>
       <r>   -15.0960     0.0000   180.0000 </r>
       <r>   -14.9140     0.0000   180.0000 </r>
       <r>   -14.7320     0.0000   180.0000 </r>
       <r>   -14.5500     0.0000   180.0000 </r>
       <r>   -14.3681     0.0000   180.0000 </r>
       <r>   -14.1861     0.0000   180.0000 </r>
       <r>   -14.0041     0.0000   180.0000 </r>
       <r>   -13.8221     0.0000   180.0000 </r>
       <r>   -13.6401     0.0000   180.0000 </r>
       <r>   -13.4581     0.0000   182.0000 </r>
       <r>   -13.2761     0.0000   184.0000 </r>
       <r>   -13.0942     0.0000   184.0000 </r>
       <r>   -12.9122     0.0000   184.0000 </r>
       <r>   -12.7302     0.0000   192.0000 </r>
       <r>   -12.5482     0.0000   206.0000 </r>
       <r>   -12.3662     0.0000   208.0000 </r>
       <r>   -12.1842     0.0000   208.0000 </r>
       <r>   -12.0022     0.0000   208.0000 </r>
       <r>   -11.8203     0.0000   212.0000 </r>
       <r>   -11.6383     0.0000   212.0000 </r>
       <r>   -11.4563     0.0000   212.0000 </r>
       <r>   -11.2743     0.0000   212.0000 </r>
       <r>   -11.0923     0.0000   212.0000 </r>
       <r>   -10.9103     0.0000   212.0000 </r>
       <r>   -10.7283     0.0000   212.0000 </r>
       <r>   -10.5464     0.0000   212.0000 </r>
       <r>   -10.3644     0.0000   212.0000 </r>
       <r>   -10.1824     0.0000   212.0000 </r>
       <r>   -10.0004     0.0000   212.0000 </r>
       <r>    -9.8184     0.0000   212.0000 </r>
       <r>    -9.6364     0.0000   212.0000 </r>
       <r>    -9.4544     0.0000   212.0000 </r>
       <r>    -9.2725     3.0709   212.0626 </r>
       <r>    -9.0905    10.9088   213.6030 </r>
       <r>    -8.9085     0.0000   216.0000 </r>
       <r>    -8.7265    14.5177   218.4662 </r>
       <r>    -8.5445    13.5127   220.8185 </r>
       <r>    -8.3625    28.0032   225.2355 </r>
       <r>    -8.1805    20.5747   228.4479 </r>
       <r>    -7.9986    25.4949   233.0618 </r>
       <r>    -7.8166    16.7869   236.8283 </r>
       <r>    -7.6346     2.3777   240.0013 </r>
       <r>    -7.4526    11.8079   243.3848 </r>
       <r>    -7.2706     0.0000   244.0000 </r>
       <r>    -7.0886     0.0000   244.0000 </r>
       <r>    -6.9066     0.0000   244.0000 </r>
       <r>    -6.7247     0.0000   244.0000 </r>
       <r>    -6.5427     0.0000   244.0000 </r>
       <r>    -6.3607     0.0000   244.0000 </r>
       <r>    -6.1787    16.3001   245.3566 </r>
       <r>    -5.9967    22.6485   249.7533 </r>
       <r>    -5.8147    18.9766   253.1356 </r>
       <r>    -5.6327    20.9814   257.8470 </r>
       <r>    -5.4507    21.9478   261.7988 </r>
       <r>    -5.2688    17.4473   265.5012 </r>
       <r>    -5.0868     5.9907   267.6820 </r>
       <r>    -4.9048     6.6071   268.5275 </r>
       <r>    -4.7228     7.9060   269.8942 </r>
       <r>    -4.5408    10.3911   271.5645 </r>
       <r>    -4.3588     5.8515   273.0492 </r>
       <r>    -4.1768     7.2318   274.2838 </r>
       <r>    -3.9949     4.3148   275.3522 </r>
       <r>    -3.8129     1.3888   275.8531 </r>
       <r>    -3.6309     0.1972   275.9953 </r>
       <r>    -3.4489     0.0000   276.0000 </r>
       <r>    -3.2669     0.0000   276.0000 </r>
       <r>    -3.0849     0.0000   276.0000 </r>
       <r>    -2.9029     0.0000   276.0000 </r>
       <r>    -2.7210     0.0000   276.0000 </r>
       <r>    -2.5390     0.0000   276.0000 </r>
       <r>    -2.3570     0.0000   276.0000 </r>
       <r>    -2.1750     0.0000   276.0000 </r>
       <r>    -1.9930     0.0000   276.0000 </r>
       <r>    -1.8110     0.0000   276.0000 </r>
       <r>    -1.6290     0.0000   276.0000 </r>
       <r>    -1.4471     0.0029   276.0000 </r>
       <r>    -1.2651     4.2461   276.2795 </r>
       <r>    -1.0831    11.3433   277.7920 </r>
       <r>    -0.9011    12.8412   279.9120 </r>
       <r>    -0.7191     8.6494   281.9908 </r>
       <r>    -0.5371     4.7782   283.1779 </r>
       <r>    -0.3551    20.4585   285.5101 </r>
       <r>    -0.1732    25.2061   289.5636 </r>
       <r>     0.0088    39.3752   295.9754 </r>
       <r>     0.1908    31.7749   302.2941 </r>
       <r>     0.3728    37.6097   308.7607 </r>
       <r>     0.5548    45.5669   315.6786 </r>
       <r>     0.7368    46.6709   323.3676 </r>
       <r>     0.9188    22.2226   328.6319 </r>
       <r>     1.1007    50.0403   336.8031 </r>
       <r>     1.2827    51.3584   344.9557 </r>
       <r>     1.4647    49.6084   352.0927 </r>
       <r>     1.6467    49.9108   362.1709 </r>
       <r>     1.8287    48.0712   371.8540 </r>
       <r>     2.0107    43.3728   380.4790 </r>
       <r>     2.1927    40.4933   388.6473 </r>
       <r>     2.3746    49.4058   395.7394 </r>
       <r>     2.5566    66.8832   406.0858 </r>
       <r>     2.7386    61.6406   417.5956 </r>
       <r>     2.9206    77.3818   430.0981 </r>
       <r>     3.1026    53.9012   442.5628 </r>
       <r>     3.2846    33.8430   450.2962 </r>
       <r>     3.4666    46.2720   456.9774 </r>
       <r>     3.6485    14.3483   462.5445 </r>
       <r>     3.8305    12.3854   465.4176 </r>
       <r>     4.0125     6.9646   467.1785 </r>
       <r>     4.1945     1.5294   467.9516 </r>
       <r>     4.3765     0.0000   468.0000 </r>
       <r>     4.5585     0.0000   468.0000 </r>
       <r>     4.7405     0.0000   468.0000 </r>
       <r>     4.9224     0.0000   468.0000 </r>
       <r>     5.1044     0.1361   468.0020 </r>
       <r>     5.2864     2.8630   468.2261 </r>
       <r>     5.4684     6.8596   469.1106 </r>
       <r>     5.6504     9.5305   470.6855 </r>
       <r>     5.8324    24.9377   473.5458 </r>
       <r>     6.0144    13.3281   476.9009 </r>
       <r>     6.1963    11.5162   479.1286 </r>
       <r>     6.3783    12.5738   481.2834 </r>
       <r>     6.5603    14.3098   483.7299 </r>
       <r>     6.7423    16.0319   486.4906 </r>
       <r>     6.9243    18.1335   489.5798 </r>
       <r>     7.1063    22.4759   493.2093 </r>
       <r>     7.2883    33.5358   498.3148 </r>
       <r>     7.4703    43.7668   505.6785 </r>
       <r>     7.6522    26.3345   511.0480 </r>
       <r>     7.8342    48.9320   518.2171 </r>
       <r>     8.0162    39.9410   526.8313 </r>
       <r>     8.1982    21.2436   531.9422 </r>
       <r>     8.3802    18.2412   535.4196 </r>
       <r>     8.5622    23.1694   539.1054 </r>
       <r>     8.7442    26.2126   543.7697 </r>
       <r>     8.9261    46.7310   551.3232 </r>
       <r>     9.1081    19.1881   556.8764 </r>
       <r>     9.2901     8.1628   559.1233 </r>
       <r>     9.4721     1.2726   559.9621 </r>
       <r>     9.6541     0.0000   560.0000 </r>
       <r>     9.8361     0.0000   560.0000 </r>
       <r>    10.0181     0.0000   560.0000 </r>
       <r>    10.2000     0.0000   560.0000 </r>
       <r>    10.3820     0.0000   560.0000 </r>
       <r>    10.5640     0.0000   560.0000 </r>
       <r>    10.7460     0.0000   560.0000 </r>
       <r>    10.9280     0.0000   560.0000 </r>
       <r>    11.1100     0.0000   560.0000 </r>
       <r>    11.2920     0.0000   560.0000 </r>
       <r>    11.4739     0.0000   560.0000 </r>
       <r>    11.6559     0.0000   560.0000 </r>
       <r>    11.8379     0.0000   560.0000 </r>
       <r>    12.0199     0.0000   560.0000 </r>
      </set>
     </set>
    </array>
   </total>
  </dos>
 </calculation>
 <structure name="finalpos" >
  <crystal>
   <varray name="basis" >
    <v>      11.17850000       0.00000000       0.00000000 </v>
    <v>       0.00000000       9.57460000       0.00000000 </v>
    <v>       0.00000000       0.00000000      11.18240000 </v>
   </varray>
   <i name="volume">   1196.84853820 </i>
   <varray name="rec_basis" >
    <v>       0.08945744       0.00000000       0.00000000 </v>
    <v>       0.00000000       0.10444301       0.00000000 </v>
    <v>       0.00000000       0.00000000       0.08942624 </v>
   </varray>
  </crystal>
  <varray name="positions" >
   <v>       0.37539000       0.00017000       0.43687000 </v>
   <v>       0.12461000       0.99984000       0.18687000 </v>
   <v>       0.37461000       0.00017000       0.18687000 </v>
   <v>       0.62539000       0.99984000       0.43687000 </v>
   <v>       0.87539000       0.00017000       0.43687000 </v>
   <v>       0.62461000       0.99984000       0.18687000 </v>
   <v>       0.87461000       0.00017000       0.18687000 </v>
   <v>       0.37461000       0.00017000       0.68687000 </v>
   <v>       0.62461000       0.99984000       0.68687000 </v>
   <v>       0.87461000       0.00017000       0.68687000 </v>
   <v>       0.37539000       0.00017000       0.93687000 </v>
   <v>       0.12461000       0.99984000       0.68687000 </v>
   <v>       0.87539000       0.00017000       0.93687000 </v>
   <v>       0.00013000       0.29519000       0.06281000 </v>
   <v>       0.25013000       0.70481000       0.06281000 </v>
   <v>       0.24987000       0.29519000       0.31282000 </v>
   <v>       0.49987000       0.70481000       0.31282000 </v>
   <v>       0.50013000       0.29519000       0.06281000 </v>
   <v>       0.75013000       0.70481000       0.06281000 </v>
   <v>       0.74987000       0.29519000       0.31282000 </v>
   <v>       0.99987000       0.70481000       0.31282000 </v>
   <v>       0.00013000       0.29519000       0.56281000 </v>
   <v>       0.25013000       0.70481000       0.56281000 </v>
   <v>       0.24987000       0.29519000       0.81282000 </v>
   <v>       0.49987000       0.70481000       0.81282000 </v>
   <v>       0.50013000       0.29519000       0.56281000 </v>
   <v>       0.75013000       0.70481000       0.56281000 </v>
   <v>       0.74987000       0.29519000       0.81282000 </v>
   <v>       0.99987000       0.70481000       0.81282000 </v>
   <v>       0.25005000       0.32677000       0.06286000 </v>
   <v>       0.00005000       0.67323000       0.06286000 </v>
   <v>       0.49995000       0.32677000       0.31286000 </v>
   <v>       0.24995000       0.67323000       0.31286000 </v>
   <v>       0.75005000       0.32677000       0.06286000 </v>
   <v>       0.50005000       0.67323000       0.06286000 </v>
   <v>       0.99995000       0.32677000       0.31286000 </v>
   <v>       0.74995000       0.67323000       0.31286000 </v>
   <v>       0.25005000       0.32677000       0.56286000 </v>
   <v>       0.00005000       0.67323000       0.56286000 </v>
   <v>       0.49995000       0.32677000       0.81286000 </v>
   <v>       0.24995000       0.67323000       0.81286000 </v>
   <v>       0.75005000       0.32677000       0.56286000 </v>
   <v>       0.50005000       0.67323000       0.56286000 </v>
   <v>       0.99995000       0.32677000       0.81286000 </v>
   <v>       0.74995000       0.67323000       0.81286000 </v>
   <v>       0.49987000       0.07798000       0.06246000 </v>
   <v>       0.24987000       0.92202000       0.06246000 </v>
   <v>       0.25013000       0.07798000       0.31246000 </v>
   <v>       0.00013000       0.92202000       0.31246000 </v>
   <v>       0.99987000       0.07798000       0.06246000 </v>
   <v>       0.74987000       0.92202000       0.06246000 </v>
   <v>       0.75013000       0.07798000       0.31246000 </v>
   <v>       0.50013000       0.92202000       0.31246000 </v>
   <v>       0.49987000       0.07798000       0.56246000 </v>
   <v>       0.24987000       0.92202000       0.56246000 </v>
   <v>       0.25013000       0.07798000       0.81246000 </v>
   <v>       0.00013000       0.92202000       0.81246000 </v>
   <v>       0.99987000       0.07798000       0.56246000 </v>
   <v>       0.74987000       0.92202000       0.56246000 </v>
   <v>       0.75013000       0.07798000       0.81246000 </v>
   <v>       0.50013000       0.92202000       0.81246000 </v>
  </varray>
 </structure>
</modeling>
