<?xml version="1.0" encoding="ISO-8859-1"?>
<modeling>
 <generator>
  <i name="program" type="string">vasp </i>
  <i name="version" type="string">5.4.4.18Apr17-6-g9f103f2a35  </i>
  <i name="subversion" type="string">(build Jul 31 2017 11:33:29) complex            parallel </i>
  <i name="platform" type="string">LinuxIFC </i>
  <i name="date" type="string">2021 09 24 </i>
  <i name="time" type="string">05:40:52 </i>
 </generator>
 <incar>
  <i type="string" name="SYSTEM"> La2O2S</i>
  <i type="string" name="PREC">normal</i>
  <i type="int" name="NELMIN">     4</i>
  <i type="int" name="IBRION">     2</i>
  <i type="int" name="NFREE">    10</i>
  <i name="EDIFF">      0.00000100</i>
  <i name="EDIFFG">     -0.01000000</i>
  <i type="int" name="NSW">   200</i>
  <i type="int" name="ISIF">     3</i>
  <i name="ENCUT">    600.00000000</i>
  <i name="ENAUG">    900.00000000</i>
  <i type="int" name="ISMEAR">    -5</i>
  <i type="logical" name="LWAVE"> F  </i>
  <i type="logical" name="LCHARG"> F  </i>
  <v type="int" name="KPOINT_BSE">    -1     0     0     0</v>
 </incar>
 <structure name="primitive_cell" >
  <crystal>
   <varray name="basis" >
    <v>      11.17850000       0.00000000       0.00000000 </v>
    <v>       0.00000000       9.57460000       0.00000000 </v>
    <v>       0.00000000       0.00000000      11.18240000 </v>
   </varray>
   <i name="volume">   1196.84853820 </i>
   <varray name="rec_basis" >
    <v>       0.08945744       0.00000000       0.00000000 </v>
    <v>       0.00000000       0.10444301       0.00000000 </v>
    <v>       0.00000000       0.00000000       0.08942624 </v>
   </varray>
  </crystal>
  <varray name="positions" >
   <v>       0.37539000       0.00017000       0.43687000 </v>
   <v>      -0.49987000      -0.07798000       0.31246000 </v>
   <v>       0.25013000       0.07798000       0.31246000 </v>
   <v>       0.49987000       0.07798000      -0.43754000 </v>
   <v>       0.24987000      -0.07798000      -0.43754000 </v>
   <v>      -0.37461000      -0.00016000       0.43687000 </v>
   <v>       0.37461000       0.00017000       0.18687000 </v>
   <v>       0.37461000       0.00017000      -0.31313000 </v>
   <v>       0.49987000      -0.29519000       0.31282000 </v>
   <v>       0.24987000       0.29519000       0.31282000 </v>
   <v>      -0.49987000       0.29519000      -0.43719000 </v>
   <v>       0.25013000      -0.29519000      -0.43719000 </v>
   <v>       0.49995000       0.32677000       0.31286000 </v>
   <v>       0.24995000      -0.32677000       0.31286000 </v>
   <v>      -0.49995000      -0.32677000      -0.43714000 </v>
   <v>       0.25005000       0.32677000      -0.43714000 </v>
   <v>      -0.37539000      -0.00016000       0.18687000 </v>
   <v>      -0.37539000      -0.00016000      -0.31313000 </v>
   <v>       0.12461000      -0.00016000       0.18687000 </v>
   <v>       0.12461000      -0.00016000      -0.31313000 </v>
   <v>       0.49987000       0.07798000       0.06246000 </v>
   <v>      -0.24987000       0.07798000       0.31246000 </v>
   <v>      -0.25013000      -0.07798000      -0.43754000 </v>
   <v>       0.24987000      -0.07798000       0.06246000 </v>
   <v>       0.00013000      -0.07798000       0.31246000 </v>
   <v>      -0.49987000      -0.07798000      -0.18754000 </v>
   <v>      -0.00013000       0.07798000      -0.43754000 </v>
   <v>       0.25013000       0.07798000      -0.18754000 </v>
   <v>      -0.49987000       0.29519000       0.06281000 </v>
   <v>      -0.25013000       0.29519000       0.31282000 </v>
   <v>       0.25013000      -0.29519000       0.06281000 </v>
   <v>      -0.24987000      -0.29519000      -0.43719000 </v>
   <v>      -0.00013000      -0.29519000       0.31282000 </v>
   <v>       0.00013000       0.29519000      -0.43719000 </v>
   <v>       0.49987000      -0.29519000      -0.18718000 </v>
   <v>       0.24987000       0.29519000      -0.18718000 </v>
   <v>      -0.49995000      -0.32677000       0.06286000 </v>
   <v>       0.25005000       0.32677000       0.06286000 </v>
   <v>      -0.25005000      -0.32677000       0.31286000 </v>
   <v>      -0.24995000       0.32677000      -0.43714000 </v>
   <v>      -0.00005000       0.32677000       0.31286000 </v>
   <v>       0.00005000      -0.32677000      -0.43714000 </v>
   <v>       0.49995000       0.32677000      -0.18714000 </v>
   <v>       0.24995000      -0.32677000      -0.18714000 </v>
   <v>      -0.12461000       0.00017000       0.43687000 </v>
   <v>      -0.25013000      -0.07798000       0.06246000 </v>
   <v>      -0.00013000       0.07798000       0.06246000 </v>
   <v>      -0.24987000       0.07798000      -0.18754000 </v>
   <v>       0.00013000      -0.07798000      -0.18754000 </v>
   <v>      -0.12539000       0.00017000       0.18687000 </v>
   <v>      -0.12539000       0.00017000      -0.31313000 </v>
   <v>       0.12539000      -0.00016000      -0.06313000 </v>
   <v>      -0.37461000      -0.00016000      -0.06313000 </v>
   <v>      -0.24987000      -0.29519000       0.06281000 </v>
   <v>       0.00013000       0.29519000       0.06281000 </v>
   <v>      -0.25013000       0.29519000      -0.18718000 </v>
   <v>      -0.00013000      -0.29519000      -0.18718000 </v>
   <v>      -0.24995000       0.32677000       0.06286000 </v>
   <v>       0.00005000      -0.32677000       0.06286000 </v>
   <v>      -0.25005000      -0.32677000      -0.18714000 </v>
   <v>      -0.00005000       0.32677000      -0.18714000 </v>
   <v>      -0.12461000       0.00017000      -0.06313000 </v>
  </varray>
 </structure>
 <varray name="primitive_index" >
  <v type="int" >        1 </v>
  <v type="int" >       54 </v>
  <v type="int" >       49 </v>
  <v type="int" >       55 </v>
  <v type="int" >       56 </v>
  <v type="int" >        4 </v>
  <v type="int" >        3 </v>
  <v type="int" >       10 </v>
  <v type="int" >       18 </v>
  <v type="int" >       17 </v>
  <v type="int" >       27 </v>
  <v type="int" >       24 </v>
  <v type="int" >       33 </v>
  <v type="int" >       34 </v>
  <v type="int" >       44 </v>
  <v type="int" >       39 </v>
  <v type="int" >        6 </v>
  <v type="int" >       12 </v>
  <v type="int" >        2 </v>
  <v type="int" >        9 </v>
  <v type="int" >       47 </v>
  <v type="int" >       53 </v>
  <v type="int" >       60 </v>
  <v type="int" >       48 </v>
  <v type="int" >       50 </v>
  <v type="int" >       62 </v>
  <v type="int" >       59 </v>
  <v type="int" >       57 </v>
  <v type="int" >       19 </v>
  <v type="int" >       21 </v>
  <v type="int" >       16 </v>
  <v type="int" >       28 </v>
  <v type="int" >       22 </v>
  <v type="int" >       23 </v>
  <v type="int" >       26 </v>
  <v type="int" >       25 </v>
  <v type="int" >       36 </v>
  <v type="int" >       31 </v>
  <v type="int" >       38 </v>
  <v type="int" >       43 </v>
  <v type="int" >       37 </v>
  <v type="int" >       40 </v>
  <v type="int" >       41 </v>
  <v type="int" >       42 </v>
  <v type="int" >        5 </v>
  <v type="int" >       52 </v>
  <v type="int" >       51 </v>
  <v type="int" >       61 </v>
  <v type="int" >       58 </v>
  <v type="int" >        7 </v>
  <v type="int" >       14 </v>
  <v type="int" >        8 </v>
  <v type="int" >       11 </v>
  <v type="int" >       20 </v>
  <v type="int" >       15 </v>
  <v type="int" >       29 </v>
  <v type="int" >       30 </v>
  <v type="int" >       35 </v>
  <v type="int" >       32 </v>
  <v type="int" >       46 </v>
  <v type="int" >       45 </v>
  <v type="int" >       13 </v>
 </varray>
 <kpoints>
  <generation param="Gamma">
   <v type="int" name="divisions">       2        2        2 </v>
   <v name="usershift">      0.00000000       0.00000000       0.00000000 </v>
   <v name="genvec1">      0.50000000       0.00000000       0.00000000 </v>
   <v name="genvec2">      0.00000000       0.50000000       0.00000000 </v>
   <v name="genvec3">      0.00000000       0.00000000       0.50000000 </v>
   <v name="shift">      0.00000000       0.00000000       0.00000000 </v>
  </generation>
  <varray name="kpointlist" >
   <v>       0.00000000       0.00000000       0.00000000 </v>
   <v>       0.50000000       0.00000000       0.00000000 </v>
   <v>       0.00000000       0.50000000       0.00000000 </v>
   <v>       0.50000000       0.50000000       0.00000000 </v>
   <v>       0.00000000       0.00000000       0.50000000 </v>
   <v>       0.50000000       0.00000000       0.50000000 </v>
   <v>       0.00000000       0.50000000       0.50000000 </v>
   <v>       0.50000000       0.50000000       0.50000000 </v>
  </varray>
  <varray name="weights" >
   <v>       0.12500000 </v>
   <v>       0.12500000 </v>
   <v>       0.12500000 </v>
   <v>       0.12500000 </v>
   <v>       0.12500000 </v>
   <v>       0.12500000 </v>
   <v>       0.12500000 </v>
   <v>       0.12500000 </v>
  </varray>
  <varray name="tetrahedronlist"  type="int" >
   <v type="int" >        2        1        2        4        5 </v>
   <v type="int" >        2        1        3        4        5 </v>
   <v type="int" >        2        3        4        5        7 </v>
   <v type="int" >        2        2        4        5        6 </v>
   <v type="int" >        2        4        5        6        8 </v>
   <v type="int" >        2        4        5        7        8 </v>
   <v type="int" >        2        1        2        3        6 </v>
   <v type="int" >        2        2        3        4        6 </v>
   <v type="int" >        2        3        4        6        8 </v>
   <v type="int" >        2        1        3        5        6 </v>
   <v type="int" >        2        3        5        6        7 </v>
   <v type="int" >        2        3        6        7        8 </v>
   <v type="int" >        2        2        3        4        7 </v>
   <v type="int" >        2        1        2        3        7 </v>
   <v type="int" >        2        1        2        5        7 </v>
   <v type="int" >        2        2        4        7        8 </v>
   <v type="int" >        2        2        6        7        8 </v>
   <v type="int" >        2        2        5        6        7 </v>
   <v type="int" >        2        1        3        4        8 </v>
   <v type="int" >        2        1        2        4        8 </v>
   <v type="int" >        2        1        2        6        8 </v>
   <v type="int" >        2        1        3        7        8 </v>
   <v type="int" >        2        1        5        7        8 </v>
   <v type="int" >        2        1        5        6        8 </v>
  </varray>
  <i name="volumeweight">      0.02083333 </i>
 </kpoints>
 <parameters>
  <separator name="general" >
   <i type="string" name="SYSTEM">La2O2S</i>
   <i type="logical" name="LCOMPAT"> F  </i>
  </separator>
  <separator name="electronic" >
   <i type="string" name="PREC">normal</i>
   <i name="ENMAX">    600.00000000</i>
   <i name="ENAUG">    900.00000000</i>
   <i name="EDIFF">      0.00000100</i>
   <i type="int" name="IALGO">    38</i>
   <i type="int" name="IWAVPR">    11</i>
   <i type="int" name="NBANDS">   308</i>
   <i name="NELECT">    472.00000000</i>
   <i type="int" name="TURBO">     0</i>
   <i type="int" name="IRESTART">     0</i>
   <i type="int" name="NREBOOT">     0</i>
   <i type="int" name="NMIN">     0</i>
   <i name="EREF">      0.00000000</i>
   <separator name="electronic smearing" >
    <i type="int" name="ISMEAR">    -5</i>
    <i name="SIGMA">      0.20000000</i>
    <i name="KSPACING">      0.50000000</i>
    <i type="logical" name="KGAMMA"> T  </i>
   </separator>
   <separator name="electronic projectors" >
    <i type="logical" name="LREAL"> F  </i>
    <v name="ROPT">      0.00000000      0.00000000      0.00000000      0.00000000      0.00000000</v>
    <i type="int" name="LMAXPAW">  -100</i>
    <i type="int" name="LMAXMIX">     2</i>
    <i type="logical" name="NLSPLINE"> F  </i>
   </separator>
   <separator name="electronic startup" >
    <i type="int" name="ISTART">     0</i>
    <i type="int" name="ICHARG">     2</i>
    <i type="int" name="INIWAV">     1</i>
   </separator>
   <separator name="electronic spin" >
    <i type="int" name="ISPIN">     1</i>
    <i type="logical" name="LNONCOLLINEAR"> F  </i>
    <v name="MAGMOM">      1.00000000      1.00000000      1.00000000      1.00000000      1.00000000      1.00000000      1.00000000      1.00000000      1.00000000      1.00000000      1.00000000      1.00000000      1.00000000      1.00000000      1.00000000      1.00000000      1.00000000      1.00000000      1.00000000      1.00000000
      1.00000000      1.00000000      1.00000000      1.00000000      1.00000000      1.00000000      1.00000000      1.00000000      1.00000000      1.00000000      1.00000000      1.00000000      1.00000000      1.00000000      1.00000000      1.00000000      1.00000000      1.00000000      1.00000000      1.00000000
      1.00000000      1.00000000      1.00000000      1.00000000      1.00000000      1.00000000      1.00000000      1.00000000      1.00000000      1.00000000      1.00000000      1.00000000      1.00000000      1.00000000      1.00000000      1.00000000      1.00000000      1.00000000      1.00000000      1.00000000
      1.00000000      1.00000000</v>
    <i name="NUPDOWN">     -1.00000000</i>
    <i type="logical" name="LSORBIT"> F  </i>
    <v name="SAXIS">      0.00000000      0.00000000      1.00000000</v>
    <i type="logical" name="LSPIRAL"> F  </i>
    <v name="QSPIRAL">      0.00000000      0.00000000      0.00000000</v>
    <i type="logical" name="LZEROZ"> F  </i>
   </separator>
   <separator name="electronic exchange-correlation" >
    <i type="logical" name="LASPH"> F  </i>
    <i type="logical" name="LMETAGGA"> F  </i>
   </separator>
   <separator name="electronic convergence" >
    <i type="int" name="NELM">    60</i>
    <i type="int" name="NELMDL">    -5</i>
    <i type="int" name="NELMIN">     4</i>
    <i name="ENINI">    600.00000000</i>
    <separator name="electronic convergence detail" >
     <i type="logical" name="LDIAG"> T  </i>
     <i type="logical" name="LSUBROT"> F  </i>
     <i name="WEIMIN">      0.00100000</i>
     <i name="EBREAK">      0.00000000</i>
     <i name="DEPER">      0.30000000</i>
     <i type="int" name="NRMM">     4</i>
     <i name="TIME">      0.40000000</i>
    </separator>
   </separator>
   <separator name="electronic mixer" >
    <i name="AMIX">      0.40000000</i>
    <i name="BMIX">      1.00000000</i>
    <i name="AMIN">      0.10000000</i>
    <i name="AMIX_MAG">      1.60000000</i>
    <i name="BMIX_MAG">      1.00000000</i>
    <separator name="electronic mixer details" >
     <i type="int" name="IMIX">     4</i>
     <i type="logical" name="MIXFIRST"> F  </i>
     <i type="int" name="MAXMIX">   -45</i>
     <i name="WC">    100.00000000</i>
     <i type="int" name="INIMIX">     1</i>
     <i type="int" name="MIXPRE">     1</i>
     <i type="int" name="MREMOVE">     5</i>
    </separator>
   </separator>
   <separator name="electronic dipolcorrection" >
    <i type="logical" name="LDIPOL"> F  </i>
    <i type="logical" name="LMONO"> F  </i>
    <i type="int" name="IDIPOL">     0</i>
    <i name="EPSILON">      1.00000000</i>
    <v name="DIPOL">   -100.00000000   -100.00000000   -100.00000000</v>
    <i name="EFIELD">      0.00000000</i>
   </separator>
  </separator>
  <separator name="grids" >
   <i type="int" name="NGX">    70</i>
   <i type="int" name="NGY">    60</i>
   <i type="int" name="NGZ">    70</i>
   <i type="int" name="NGXF">   140</i>
   <i type="int" name="NGYF">   120</i>
   <i type="int" name="NGZF">   140</i>
   <i type="logical" name="ADDGRID"> F  </i>
  </separator>
  <separator name="ionic" >
   <i type="int" name="NSW">   200</i>
   <i type="int" name="IBRION">     2</i>
   <i type="int" name="MDALGO">     0</i>
   <i type="int" name="ISIF">     3</i>
   <i name="PSTRESS">      0.00000000</i>
   <i name="EDIFFG">     -0.01000000</i>
   <i type="int" name="NFREE">    10</i>
   <i name="POTIM">      0.50000000</i>
   <i name="SMASS">     -3.00000000</i>
   <i name="SCALEE">      1.00000000</i>
  </separator>
  <separator name="ionic md" >
   <i name="TEBEG">      0.00010000</i>
   <i name="TEEND">      0.00010000</i>
   <i type="int" name="NBLOCK">     1</i>
   <i type="int" name="KBLOCK">   200</i>
   <i type="int" name="NPACO">   256</i>
   <i name="APACO">     16.00000000</i>
  </separator>
  <separator name="symmetry" >
   <i type="int" name="ISYM">     2</i>
   <i name="SYMPREC">      0.00001000</i>
  </separator>
  <separator name="dos" >
   <i type="int" name="LORBIT">     0</i>
   <v name="RWIGS">     -1.00000000     -1.00000000     -1.00000000     -1.00000000     -1.00000000</v>
   <i type="int" name="NEDOS">   301</i>
   <i name="EMIN">     10.00000000</i>
   <i name="EMAX">    -10.00000000</i>
   <i name="EFERMI">      0.00000000</i>
  </separator>
  <separator name="writing" >
   <i type="int" name="NWRITE">     2</i>
   <i type="logical" name="LWAVE"> F  </i>
   <i type="logical" name="LDOWNSAMPLE"> F  </i>
   <i type="logical" name="LCHARG"> F  </i>
   <i type="logical" name="LPARD"> F  </i>
   <i type="logical" name="LVTOT"> F  </i>
   <i type="logical" name="LVHAR"> F  </i>
   <i type="logical" name="LELF"> F  </i>
   <i type="logical" name="LOPTICS"> F  </i>
   <v name="STM">      0.00000000      0.00000000      0.00000000      0.00000000      0.00000000      0.00000000      0.00000000</v>
  </separator>
  <separator name="performance" >
   <i type="int" name="NPAR">    28</i>
   <i type="int" name="NSIM">     4</i>
   <i type="int" name="NBLK">    -1</i>
   <i type="logical" name="LPLANE"> T  </i>
   <i type="logical" name="LSCALAPACK"> T  </i>
   <i type="logical" name="LSCAAWARE"> F  </i>
   <i type="logical" name="LSCALU"> F  </i>
   <i type="logical" name="LASYNC"> F  </i>
   <i type="logical" name="LORBITALREAL"> F  </i>
  </separator>
  <separator name="miscellaneous" >
   <i type="int" name="IDIOT">     3</i>
   <i type="int" name="ISPECIAL">     0</i>
   <i type="logical" name="LMUSIC"> F  </i>
   <v name="POMASS">      7.01000000     24.30500000    208.98000000     32.06600000     16.00000000</v>
   <v name="DARWINR">      0.00000000      0.00000000      0.00000000      0.00000000      0.00000000</v>
   <v name="DARWINV">      1.00000000      1.00000000      1.00000000      1.00000000      1.00000000</v>
   <i type="logical" name="LCORR"> T  </i>
  </separator>
  <i type="logical" name="GGA_COMPAT"> T  </i>
  <i type="logical" name="LBERRY"> F  </i>
  <i type="int" name="ICORELEVEL">     0</i>
  <i type="logical" name="LDAU"> F  </i>
  <i type="int" name="I_CONSTRAINED_M">     0</i>
  <separator name="electronic exchange-correlation" >
   <i type="string" name="GGA">--</i>
   <i type="int" name="VOSKOWN">     0</i>
   <i type="logical" name="LHFCALC"> F  </i>
   <i type="string" name="PRECFOCK"></i>
   <i type="logical" name="LSYMGRAD"> F  </i>
   <i type="logical" name="LHFONE"> F  </i>
   <i type="logical" name="LRHFCALC"> F  </i>
   <i type="logical" name="LTHOMAS"> F  </i>
   <i type="logical" name="LMODELHF"> F  </i>
   <i name="ENCUT4O">     -1.00000000</i>
   <i type="int" name="EXXOEP">     0</i>
   <i type="int" name="FOURORBIT">     0</i>
   <i name="AEXX">      0.00000000</i>
   <i name="HFALPHA">      0.00000000</i>
   <i name="MCALPHA">      0.00000000</i>
   <i name="ALDAX">      1.00000000</i>
   <i name="AGGAX">      1.00000000</i>
   <i name="ALDAC">      1.00000000</i>
   <i name="AGGAC">      1.00000000</i>
   <i type="int" name="NKREDX">     1</i>
   <i type="int" name="NKREDY">     1</i>
   <i type="int" name="NKREDZ">     1</i>
   <i type="logical" name="SHIFTRED"> F  </i>
   <i type="logical" name="ODDONLY"> F  </i>
   <i type="logical" name="EVENONLY"> F  </i>
   <i type="int" name="LMAXFOCK">     0</i>
   <i type="int" name="NMAXFOCKAE">     0</i>
   <i type="logical" name="LFOCKAEDFT"> F  </i>
   <i name="HFSCREEN">      0.00000000</i>
   <i name="HFSCREENC">      0.00000000</i>
   <i type="int" name="NBANDSGWLOW">     0</i>
  </separator>
  <separator name="vdW DFT" >
   <i type="logical" name="LUSE_VDW"> F  </i>
   <i name="Zab_VDW">     -0.84910000</i>
   <i name="PARAM1">      0.12340000</i>
   <i name="PARAM2">      1.00000000</i>
   <i name="PARAM3">      0.00000000</i>
  </separator>
  <separator name="model GW" >
   <i type="int" name="MODEL_GW">     0</i>
   <i name="MODEL_EPS0">     11.58240521</i>
   <i name="MODEL_ALPHA">      1.00000000</i>
  </separator>
  <separator name="linear response parameters" >
   <i type="logical" name="LEPSILON"> F  </i>
   <i type="logical" name="LRPA"> F  </i>
   <i type="logical" name="LNABLA"> F  </i>
   <i type="logical" name="LVEL"> F  </i>
   <i type="int" name="KINTER">     0</i>
   <i name="CSHIFT">      0.10000000</i>
   <i name="OMEGAMAX">     -1.00000000</i>
   <i name="DEG_THRESHOLD">      0.00200000</i>
   <i name="RTIME">     -0.10000000</i>
   <i name="WPLASMAI">      0.00000000</i>
   <v name="DFIELD">      0.00000000      0.00000000      0.00000000</v>
   <v name="WPLASMA">      0.00000000      0.00000000      0.00000000      0.00000000      0.00000000      0.00000000      0.00000000      0.00000000      0.00000000</v>
  </separator>
  <separator name="orbital magnetization" >
   <i type="logical" name="NUCIND"> F  </i>
   <v name="MAGPOS">      0.00000000      0.00000000      0.00000000</v>
   <i type="logical" name="LNICSALL"> T  </i>
   <i type="logical" name="ORBITALMAG"> F  </i>
   <i type="logical" name="LMAGBLOCH"> F  </i>
   <i type="logical" name="LCHIMAG"> F  </i>
   <i type="logical" name="LGAUGE"> T  </i>
   <i type="int" name="MAGATOM">     0</i>
   <v name="MAGDIPOL">      0.00000000      0.00000000      0.00000000</v>
   <v name="AVECCONST">      0.00000000      0.00000000      0.00000000</v>
  </separator>
  <separator name="response functions" >
   <i type="logical" name="LADDER"> F  </i>
   <i type="logical" name="LRPAFORCE"> F  </i>
   <i type="logical" name="LFXC"> F  </i>
   <i type="logical" name="LHARTREE"> T  </i>
   <i type="int" name="IBSE">     0</i>
   <v type="int" name="KPOINT">    -1     0     0     0</v>
   <i type="logical" name="LTCTE"> F  </i>
   <i type="logical" name="LTETE"> F  </i>
   <i type="logical" name="LTRIPLET"> F  </i>
   <i type="logical" name="LFXCEPS"> F  </i>
   <i type="logical" name="LFXHEG"> F  </i>
   <i type="int" name="NATURALO">     2</i>
   <i type="logical" name="L2ORDER"> F  </i>
   <i type="logical" name="LMP2LT"> F  </i>
   <i type="logical" name="LUSEW"> F  </i>
   <i name="ENCUTGW">     -2.00000000</i>
   <i name="ENCUTGWSOFT">     -2.00000000</i>
   <i name="ENCUTLF">     -1.00000000</i>
   <i type="int" name="LMAXMP2">    -1</i>
   <i name="SCISSOR">      0.00000000</i>
   <i type="int" name="NOMEGA">     0</i>
   <i type="int" name="NOMEGAR">     0</i>
   <i type="int" name="NBANDSGW">    -1</i>
   <i type="int" name="NBANDSO">    -1</i>
   <i type="int" name="NBANDSV">    -1</i>
   <i type="int" name="NELM">     1</i>
   <i type="int" name="NELMHF">     1</i>
   <i type="int" name="DIM">     3</i>
   <i type="int" name="ANTIRES">     0</i>
   <i name="OMEGAMAX">    -30.00000000</i>
   <i name="OMEGAMIN">    -30.00000000</i>
   <i name="OMEGATL">   -200.00000000</i>
   <i type="int" name="OMEGAGRID">   140</i>
   <i name="CSHIFT">     -0.10000000</i>
   <i type="logical" name="SELFENERGY"> F  </i>
   <i type="logical" name="LSPECTRAL"> F  </i>
   <i type="logical" name="LSPECTRALGW"> F  </i>
   <i type="logical" name="LSINGLES"> F  </i>
   <i type="logical" name="LFERMIGW"> F  </i>
   <i type="logical" name="ODDONLYGW"> F  </i>
   <i type="logical" name="EVENONLYGW"> F  </i>
   <i type="int" name="NKREDLFX">     1</i>
   <i type="int" name="NKREDLFY">     1</i>
   <i type="int" name="NKREDLFZ">     1</i>
   <i type="int" name="MAXMEM">  2800</i>
   <i type="int" name="TELESCOPE">     0</i>
   <i type="int" name="TAUPAR">     1</i>
   <i type="int" name="OMEGAPAR">    -1</i>
   <i name="LAMBDA">      1.00000000</i>
  </separator>
  <separator name="External order field" >
   <i name="OFIELD_KAPPA">      0.00000000</i>
   <v name="OFIELD_K">      0.00000000      0.00000000      0.00000000</v>
   <i name="OFIELD_Q6_NEAR">      0.00000000</i>
   <i name="OFIELD_Q6_FAR">      0.00000000</i>
   <i name="OFIELD_A">      0.00000000</i>
  </separator>
 </parameters>
 <atominfo>
  <atoms>      62 </atoms>
  <types>       5 </types>
  <array name="atoms" >
   <dimension dim="1">ion</dimension>
   <field type="string">element</field>
   <field type="int">atomtype</field>
   <set>
    <rc><c>Li</c><c>   1</c></rc>
    <rc><c>Li</c><c>   1</c></rc>
    <rc><c>Li</c><c>   1</c></rc>
    <rc><c>Li</c><c>   1</c></rc>
    <rc><c>Li</c><c>   1</c></rc>
    <rc><c>Li</c><c>   1</c></rc>
    <rc><c>Li</c><c>   1</c></rc>
    <rc><c>Li</c><c>   1</c></rc>
    <rc><c>Li</c><c>   1</c></rc>
    <rc><c>Li</c><c>   1</c></rc>
    <rc><c>Li</c><c>   1</c></rc>
    <rc><c>Li</c><c>   1</c></rc>
    <rc><c>Mg</c><c>   2</c></rc>
    <rc><c>Mg</c><c>   2</c></rc>
    <rc><c>Bi</c><c>   3</c></rc>
    <rc><c>Bi</c><c>   3</c></rc>
    <rc><c>Bi</c><c>   3</c></rc>
    <rc><c>Bi</c><c>   3</c></rc>
    <rc><c>Bi</c><c>   3</c></rc>
    <rc><c>Bi</c><c>   3</c></rc>
    <rc><c>Bi</c><c>   3</c></rc>
    <rc><c>Bi</c><c>   3</c></rc>
    <rc><c>Bi</c><c>   3</c></rc>
    <rc><c>Bi</c><c>   3</c></rc>
    <rc><c>Bi</c><c>   3</c></rc>
    <rc><c>Bi</c><c>   3</c></rc>
    <rc><c>Bi</c><c>   3</c></rc>
    <rc><c>Bi</c><c>   3</c></rc>
    <rc><c>Bi</c><c>   3</c></rc>
    <rc><c>Bi</c><c>   3</c></rc>
    <rc><c>S </c><c>   4</c></rc>
    <rc><c>S </c><c>   4</c></rc>
    <rc><c>S </c><c>   4</c></rc>
    <rc><c>S </c><c>   4</c></rc>
    <rc><c>S </c><c>   4</c></rc>
    <rc><c>S </c><c>   4</c></rc>
    <rc><c>S </c><c>   4</c></rc>
    <rc><c>S </c><c>   4</c></rc>
    <rc><c>S </c><c>   4</c></rc>
    <rc><c>S </c><c>   4</c></rc>
    <rc><c>S </c><c>   4</c></rc>
    <rc><c>S </c><c>   4</c></rc>
    <rc><c>S </c><c>   4</c></rc>
    <rc><c>S </c><c>   4</c></rc>
    <rc><c>S </c><c>   4</c></rc>
    <rc><c>S </c><c>   4</c></rc>
    <rc><c>O </c><c>   5</c></rc>
    <rc><c>O </c><c>   5</c></rc>
    <rc><c>O </c><c>   5</c></rc>
    <rc><c>O </c><c>   5</c></rc>
    <rc><c>O </c><c>   5</c></rc>
    <rc><c>O </c><c>   5</c></rc>
    <rc><c>O </c><c>   5</c></rc>
    <rc><c>O </c><c>   5</c></rc>
    <rc><c>O </c><c>   5</c></rc>
    <rc><c>O </c><c>   5</c></rc>
    <rc><c>O </c><c>   5</c></rc>
    <rc><c>O </c><c>   5</c></rc>
    <rc><c>O </c><c>   5</c></rc>
    <rc><c>O </c><c>   5</c></rc>
    <rc><c>O </c><c>   5</c></rc>
    <rc><c>O </c><c>   5</c></rc>
   </set>
  </array>
  <array name="atomtypes" >
   <dimension dim="1">type</dimension>
   <field type="int">atomspertype</field>
   <field type="string">element</field>
   <field>mass</field>
   <field>valence</field>
   <field type="string">pseudopotential</field>
   <set>
    <rc><c>  12</c><c>Li</c><c>      7.01000000</c><c>      3.00000000</c><c>  PAW_PBE Li_sv 10Sep2004               </c></rc>
    <rc><c>   2</c><c>Mg</c><c>     24.30500000</c><c>      2.00000000</c><c>  PAW_PBE Mg 13Apr2007                  </c></rc>
    <rc><c>  16</c><c>Bi</c><c>    208.98000000</c><c>     15.00000000</c><c>  PAW_PBE Bi_d 06Sep2000                </c></rc>
    <rc><c>  16</c><c>S </c><c>     32.06600000</c><c>      6.00000000</c><c>  PAW_PBE S 06Sep2000                   </c></rc>
    <rc><c>  16</c><c>O </c><c>     16.00000000</c><c>      6.00000000</c><c>  PAW_PBE O 08Apr2002                   </c></rc>
   </set>
  </array>
 </atominfo>
 <structure name="initialpos" >
  <crystal>
   <varray name="basis" >
    <v>      11.17850000       0.00000000       0.00000000 </v>
    <v>       0.00000000       9.57460000       0.00000000 </v>
    <v>       0.00000000       0.00000000      11.18240000 </v>
   </varray>
   <i name="volume">   1196.84853820 </i>
   <varray name="rec_basis" >
    <v>       0.08945744       0.00000000       0.00000000 </v>
    <v>       0.00000000       0.10444301       0.00000000 </v>
    <v>       0.00000000       0.00000000       0.08942624 </v>
   </varray>
  </crystal>
  <varray name="positions" >
   <v>       0.37539000       0.00017000       0.43687000 </v>
   <v>       0.12461000       0.99984000       0.18687000 </v>
   <v>       0.37461000       0.00017000       0.18687000 </v>
   <v>       0.62539000       0.99984000       0.43687000 </v>
   <v>       0.87539000       0.00017000       0.43687000 </v>
   <v>       0.62461000       0.99984000       0.18687000 </v>
   <v>       0.87461000       0.00017000       0.18687000 </v>
   <v>       0.12539000       0.99984000       0.93687000 </v>
   <v>       0.12461000       0.99984000       0.68687000 </v>
   <v>       0.37461000       0.00017000       0.68687000 </v>
   <v>       0.62539000       0.99984000       0.93687000 </v>
   <v>       0.62461000       0.99984000       0.68687000 </v>
   <v>       0.87539000       0.00017000       0.93687000 </v>
   <v>       0.87461000       0.00017000       0.68687000 </v>
   <v>       0.00013000       0.29519000       0.06281000 </v>
   <v>       0.25013000       0.70481000       0.06281000 </v>
   <v>       0.24987000       0.29519000       0.31282000 </v>
   <v>       0.49987000       0.70481000       0.31282000 </v>
   <v>       0.50013000       0.29519000       0.06281000 </v>
   <v>       0.75013000       0.70481000       0.06281000 </v>
   <v>       0.74987000       0.29519000       0.31282000 </v>
   <v>       0.99987000       0.70481000       0.31282000 </v>
   <v>       0.00013000       0.29519000       0.56281000 </v>
   <v>       0.25013000       0.70481000       0.56281000 </v>
   <v>       0.24987000       0.29519000       0.81282000 </v>
   <v>       0.49987000       0.70481000       0.81282000 </v>
   <v>       0.50013000       0.29519000       0.56281000 </v>
   <v>       0.75013000       0.70481000       0.56281000 </v>
   <v>       0.74987000       0.29519000       0.81282000 </v>
   <v>       0.99987000       0.70481000       0.81282000 </v>
   <v>       0.25005000       0.32677000       0.06286000 </v>
   <v>       0.00005000       0.67323000       0.06286000 </v>
   <v>       0.49995000       0.32677000       0.31286000 </v>
   <v>       0.24995000       0.67323000       0.31286000 </v>
   <v>       0.75005000       0.32677000       0.06286000 </v>
   <v>       0.50005000       0.67323000       0.06286000 </v>
   <v>       0.99995000       0.32677000       0.31286000 </v>
   <v>       0.74995000       0.67323000       0.31286000 </v>
   <v>       0.25005000       0.32677000       0.56286000 </v>
   <v>       0.00005000       0.67323000       0.56286000 </v>
   <v>       0.49995000       0.32677000       0.81286000 </v>
   <v>       0.24995000       0.67323000       0.81286000 </v>
   <v>       0.75005000       0.32677000       0.56286000 </v>
   <v>       0.50005000       0.67323000       0.56286000 </v>
   <v>       0.99995000       0.32677000       0.81286000 </v>
   <v>       0.74995000       0.67323000       0.81286000 </v>
   <v>       0.49987000       0.07798000       0.06246000 </v>
   <v>       0.24987000       0.92202000       0.06246000 </v>
   <v>       0.25013000       0.07798000       0.31246000 </v>
   <v>       0.00013000       0.92202000       0.31246000 </v>
   <v>       0.99987000       0.07798000       0.06246000 </v>
   <v>       0.74987000       0.92202000       0.06246000 </v>
   <v>       0.75013000       0.07798000       0.31246000 </v>
   <v>       0.50013000       0.92202000       0.31246000 </v>
   <v>       0.49987000       0.07798000       0.56246000 </v>
   <v>       0.24987000       0.92202000       0.56246000 </v>
   <v>       0.25013000       0.07798000       0.81246000 </v>
   <v>       0.00013000       0.92202000       0.81246000 </v>
   <v>       0.99987000       0.07798000       0.56246000 </v>
   <v>       0.74987000       0.92202000       0.56246000 </v>
   <v>       0.75013000       0.07798000       0.81246000 </v>
   <v>       0.50013000       0.92202000       0.81246000 </v>
  </varray>
 </structure>
 <calculation>
  <scstep>
   <time name="dav">   64.78   64.92</time>
   <time name="total">   64.87   65.01</time>
   <energy>
    <i name="alphaZ">   1079.87189334 </i>
    <i name="ewald"> -31121.78794083 </i>
    <i name="hartreedc"> -12703.45283093 </i>
    <i name="XCdc">   1468.91493507 </i>
    <i name="pawpsdc">  36917.91861236 </i>
    <i name="pawaedc"> -36503.41947684 </i>
    <i name="eentropy">      0.00000000 </i>
    <i name="bandstr">   1589.60805983 </i>
    <i name="atom">  45173.57650906 </i>
    <i name="e_fr_energy">   5901.22976106 </i>
    <i name="e_wo_entrp">   5901.22976106 </i>
    <i name="e_0_energy">   5901.22976106 </i>
   </energy>
  </scstep>
  <scstep>
   <time name="dav">   65.02   65.06</time>
   <time name="total">   65.03   65.07</time>
   <energy>
    <i name="e_fr_energy">    755.71573753 </i>
    <i name="e_wo_entrp">    755.71573753 </i>
    <i name="e_0_energy">    755.71573753 </i>
   </energy>
  </scstep>
  <scstep>
   <time name="dav">   71.09   71.24</time>
   <time name="total">   71.10   71.25</time>
   <energy>
    <i name="e_fr_energy">   -241.55087890 </i>
    <i name="e_wo_entrp">   -241.55087890 </i>
    <i name="e_0_energy">   -241.55087890 </i>
   </energy>
  </scstep>
  <scstep>
   <time name="dav">   79.68   79.80</time>
   <time name="total">   79.68   79.80</time>
   <energy>
    <i name="e_fr_energy">   -351.59517592 </i>
    <i name="e_wo_entrp">   -351.59517592 </i>
    <i name="e_0_energy">   -351.59517592 </i>
   </energy>
  </scstep>
  <scstep>
   <time name="dav">  103.50  103.60</time>
   <time name="total">  104.24  104.34</time>
   <energy>
    <i name="e_fr_energy">   -360.46573335 </i>
    <i name="e_wo_entrp">   -360.46573335 </i>
    <i name="e_0_energy">   -360.46573335 </i>
   </energy>
  </scstep>
  <scstep>
   <time name="dav">   91.36   91.53</time>
   <time name="total">   92.16   92.33</time>
   <energy>
    <i name="e_fr_energy">   -300.01928751 </i>
    <i name="e_wo_entrp">   -300.01928751 </i>
    <i name="e_0_energy">   -300.01928751 </i>
   </energy>
  </scstep>
  <scstep>
   <time name="dav">   71.09   71.30</time>
   <time name="total">   71.89   72.10</time>
   <energy>
    <i name="e_fr_energy">   -302.09618586 </i>
    <i name="e_wo_entrp">   -302.09618586 </i>
    <i name="e_0_energy">   -302.09618586 </i>
   </energy>
  </scstep>
  <scstep>
   <time name="dav">   82.64   82.88</time>
   <time name="total">   83.46   83.70</time>
   <energy>
    <i name="e_fr_energy">   -300.62010537 </i>
    <i name="e_wo_entrp">   -300.62010537 </i>
    <i name="e_0_energy">   -300.62010537 </i>
   </energy>
  </scstep>
  <scstep>
   <time name="dav">   92.97   93.25</time>
   <time name="total">   93.78   94.06</time>
   <energy>
    <i name="e_fr_energy">   -299.99613445 </i>
    <i name="e_wo_entrp">   -299.99613445 </i>
    <i name="e_0_energy">   -299.99613445 </i>
   </energy>
  </scstep>
  <scstep>
   <time name="dav">   76.05   76.29</time>
   <time name="total">   76.85   77.09</time>
   <energy>
    <i name="e_fr_energy">   -299.94432886 </i>
    <i name="e_wo_entrp">   -299.94432886 </i>
    <i name="e_0_energy">   -299.94432886 </i>
   </energy>
  </scstep>
  <scstep>
   <time name="dav">   83.57   83.83</time>
   <time name="total">   84.37   84.63</time>
   <energy>
    <i name="e_fr_energy">   -299.95772102 </i>
    <i name="e_wo_entrp">   -299.95772102 </i>
    <i name="e_0_energy">   -299.95772102 </i>
   </energy>
  </scstep>
  <scstep>
   <time name="dav">   82.82   83.47</time>
   <time name="total">   83.61   84.27</time>
   <energy>
    <i name="e_fr_energy">   -299.96276154 </i>
    <i name="e_wo_entrp">   -299.96276154 </i>
    <i name="e_0_energy">   -299.96276154 </i>
   </energy>
  </scstep>
  <scstep>
   <time name="dav">   77.97   78.63</time>
   <time name="total">   78.76   79.43</time>
   <energy>
    <i name="e_fr_energy">   -299.96315533 </i>
    <i name="e_wo_entrp">   -299.96315533 </i>
    <i name="e_0_energy">   -299.96315533 </i>
   </energy>
  </scstep>
  <scstep>
   <time name="dav">   72.00   72.89</time>
   <time name="total">   72.79   73.69</time>
   <energy>
    <i name="e_fr_energy">   -299.96346883 </i>
    <i name="e_wo_entrp">   -299.96346883 </i>
    <i name="e_0_energy">   -299.96346883 </i>
   </energy>
  </scstep>
  <scstep>
   <time name="dav">  100.81  102.37</time>
   <time name="total">  101.60  103.16</time>
   <energy>
    <i name="e_fr_energy">   -299.96350708 </i>
    <i name="e_wo_entrp">   -299.96350708 </i>
    <i name="e_0_energy">   -299.96350708 </i>
   </energy>
  </scstep>
  <scstep>
   <time name="dav">   68.52   69.19</time>
   <time name="total">   69.31   69.98</time>
   <energy>
    <i name="e_fr_energy">   -299.96351733 </i>
    <i name="e_wo_entrp">   -299.96351733 </i>
    <i name="e_0_energy">   -299.96351733 </i>
   </energy>
  </scstep>
  <scstep>
   <time name="dav">   65.31   66.55</time>
   <time name="total">   66.11   67.35</time>
   <energy>
    <i name="e_fr_energy">   -299.96352158 </i>
    <i name="e_wo_entrp">   -299.96352158 </i>
    <i name="e_0_energy">   -299.96352158 </i>
   </energy>
  </scstep>
  <scstep>
   <time name="dav">   59.35   59.86</time>
   <time name="total">   59.43   59.93</time>
   <energy>
    <i name="alphaZ">   1079.87189334 </i>
    <i name="ewald"> -31121.78794083 </i>
    <i name="hartreedc"> -12935.17980562 </i>
    <i name="XCdc">   1491.63817224 </i>
    <i name="pawpsdc">  43942.60258101 </i>
    <i name="pawaedc"> -43503.94035056 </i>
    <i name="eentropy">      0.00000000 </i>
    <i name="bandstr">  -4426.74458094 </i>
    <i name="atom">  45173.57650906 </i>
    <i name="e_fr_energy">   -299.96352229 </i>
    <i name="e_wo_entrp">   -299.96352229 </i>
    <i name="e_0_energy">   -299.96352229 </i>
   </energy>
  </scstep>
  <structure>
   <crystal>
    <varray name="basis" >
     <v>      11.17850000       0.00000000       0.00000000 </v>
     <v>       0.00000000       9.57460000       0.00000000 </v>
     <v>       0.00000000       0.00000000      11.18240000 </v>
    </varray>
    <i name="volume">   1196.84853820 </i>
    <varray name="rec_basis" >
     <v>       0.08945744       0.00000000       0.00000000 </v>
     <v>       0.00000000       0.10444301       0.00000000 </v>
     <v>       0.00000000       0.00000000       0.08942624 </v>
    </varray>
   </crystal>
   <varray name="positions" >
    <v>       0.37539000       0.00017000       0.43687000 </v>
    <v>       0.12461000       0.99984000       0.18687000 </v>
    <v>       0.37461000       0.00017000       0.18687000 </v>
    <v>       0.62539000       0.99984000       0.43687000 </v>
    <v>       0.87539000       0.00017000       0.43687000 </v>
    <v>       0.62461000       0.99984000       0.18687000 </v>
    <v>       0.87461000       0.00017000       0.18687000 </v>
    <v>       0.12539000       0.99984000       0.93687000 </v>
    <v>       0.12461000       0.99984000       0.68687000 </v>
    <v>       0.37461000       0.00017000       0.68687000 </v>
    <v>       0.62539000       0.99984000       0.93687000 </v>
    <v>       0.62461000       0.99984000       0.68687000 </v>
    <v>       0.87539000       0.00017000       0.93687000 </v>
    <v>       0.87461000       0.00017000       0.68687000 </v>
    <v>       0.00013000       0.29519000       0.06281000 </v>
    <v>       0.25013000       0.70481000       0.06281000 </v>
    <v>       0.24987000       0.29519000       0.31282000 </v>
    <v>       0.49987000       0.70481000       0.31282000 </v>
    <v>       0.50013000       0.29519000       0.06281000 </v>
    <v>       0.75013000       0.70481000       0.06281000 </v>
    <v>       0.74987000       0.29519000       0.31282000 </v>
    <v>       0.99987000       0.70481000       0.31282000 </v>
    <v>       0.00013000       0.29519000       0.56281000 </v>
    <v>       0.25013000       0.70481000       0.56281000 </v>
    <v>       0.24987000       0.29519000       0.81282000 </v>
    <v>       0.49987000       0.70481000       0.81282000 </v>
    <v>       0.50013000       0.29519000       0.56281000 </v>
    <v>       0.75013000       0.70481000       0.56281000 </v>
    <v>       0.74987000       0.29519000       0.81282000 </v>
    <v>       0.99987000       0.70481000       0.81282000 </v>
    <v>       0.25005000       0.32677000       0.06286000 </v>
    <v>       0.00005000       0.67323000       0.06286000 </v>
    <v>       0.49995000       0.32677000       0.31286000 </v>
    <v>       0.24995000       0.67323000       0.31286000 </v>
    <v>       0.75005000       0.32677000       0.06286000 </v>
    <v>       0.50005000       0.67323000       0.06286000 </v>
    <v>       0.99995000       0.32677000       0.31286000 </v>
    <v>       0.74995000       0.67323000       0.31286000 </v>
    <v>       0.25005000       0.32677000       0.56286000 </v>
    <v>       0.00005000       0.67323000       0.56286000 </v>
    <v>       0.49995000       0.32677000       0.81286000 </v>
    <v>       0.24995000       0.67323000       0.81286000 </v>
    <v>       0.75005000       0.32677000       0.56286000 </v>
    <v>       0.50005000       0.67323000       0.56286000 </v>
    <v>       0.99995000       0.32677000       0.81286000 </v>
    <v>       0.74995000       0.67323000       0.81286000 </v>
    <v>       0.49987000       0.07798000       0.06246000 </v>
    <v>       0.24987000       0.92202000       0.06246000 </v>
    <v>       0.25013000       0.07798000       0.31246000 </v>
    <v>       0.00013000       0.92202000       0.31246000 </v>
    <v>       0.99987000       0.07798000       0.06246000 </v>
    <v>       0.74987000       0.92202000       0.06246000 </v>
    <v>       0.75013000       0.07798000       0.31246000 </v>
    <v>       0.50013000       0.92202000       0.31246000 </v>
    <v>       0.49987000       0.07798000       0.56246000 </v>
    <v>       0.24987000       0.92202000       0.56246000 </v>
    <v>       0.25013000       0.07798000       0.81246000 </v>
    <v>       0.00013000       0.92202000       0.81246000 </v>
    <v>       0.99987000       0.07798000       0.56246000 </v>
    <v>       0.74987000       0.92202000       0.56246000 </v>
    <v>       0.75013000       0.07798000       0.81246000 </v>
    <v>       0.50013000       0.92202000       0.81246000 </v>
   </varray>
  </structure>
  <varray name="forces" >
   <v>      -0.53761107      -0.00306650      -0.03744686 </v>
   <v>       0.37411035      -0.13547599       0.47226839 </v>
   <v>      -0.18723375       0.05958850      -0.27865185 </v>
   <v>      -0.20478495       0.06906014      -0.12491097 </v>
   <v>       0.52527417      -0.00159466      -0.52471895 </v>
   <v>      -0.35764308       0.13054619      -0.02966856 </v>
   <v>       0.19642679      -0.06244372       0.70687300 </v>
   <v>       1.19448330       0.06760868       0.13394900 </v>
   <v>       0.86410660       0.12894021      -0.46594735 </v>
   <v>      -0.18854825      -0.06404849       0.29298466 </v>
   <v>      -1.20473366      -0.07042413       0.13342328 </v>
   <v>      -0.85428091      -0.12892240       0.04269040 </v>
   <v>       0.04118962      -0.00773683       1.12118140 </v>
   <v>       0.29739967       0.10010367      -1.27974178 </v>
   <v>       0.50001574       1.10524061       0.40443676 </v>
   <v>       0.33279371       1.01240838       0.02964243 </v>
   <v>      -0.00275290      -1.06763153       0.10284731 </v>
   <v>      -0.32541356       0.01487328      -0.04776040 </v>
   <v>      -0.48689555      -1.01642493      -0.00926313 </v>
   <v>      -0.35627579      -1.10401090       0.35785359 </v>
   <v>      -0.12022428       0.06431680      -0.01591059 </v>
   <v>       0.45846516       0.98471718       0.13355067 </v>
   <v>       0.60183863       0.11317394      -0.50195498 </v>
   <v>       0.03840073       1.03123163      -0.26204271 </v>
   <v>       0.41087915      -0.97534393       0.11009961 </v>
   <v>      -0.53024054       0.97398168       0.14265267 </v>
   <v>      -0.39113668       0.00826112      -0.10906414 </v>
   <v>      -0.27987271      -1.10495700      -0.35337655 </v>
   <v>      -0.53079684       2.11759850      -0.00229856 </v>
   <v>       0.68439674      -2.11769594      -0.04918351 </v>
   <v>      -0.31268765       0.22634816      -0.07354686 </v>
   <v>      -0.36608614      -0.08668173      -0.37940839 </v>
   <v>       0.26968901       0.25932999       0.11159656 </v>
   <v>       0.03634016      -0.26431033      -0.01048833 </v>
   <v>       0.28863729       0.04729590      -0.28110875 </v>
   <v>       0.37446625      -0.18496195       0.03304909 </v>
   <v>      -0.25321330       0.15638965      -0.09562393 </v>
   <v>      -0.03383577      -0.15476143       0.00609840 </v>
   <v>      -0.08128878       0.23540983       0.08179955 </v>
   <v>      -0.38186300      -0.04923216       0.38770200 </v>
   <v>       0.45103946       0.15362411      -0.10958642 </v>
   <v>      -0.37927321      -0.19856147      -0.00243083 </v>
   <v>       0.11459018       0.05427395       0.27200154 </v>
   <v>       0.35764088      -0.22723527      -0.03101125 </v>
   <v>      -0.46860245      -0.02110906       0.08062124 </v>
   <v>       0.38608311       0.06666060       0.00415465 </v>
   <v>       0.90508445       0.80184644       0.55319279 </v>
   <v>      -0.82126036      -0.85309568       0.48101606 </v>
   <v>       0.57840507       0.94230267      -0.58821418 </v>
   <v>      -0.82564214      -0.74641081      -0.66967244 </v>
   <v>      -0.81378654      -0.92589232      -0.83619994 </v>
   <v>       0.74569864       0.97705826      -0.77552575 </v>
   <v>       0.01088373      -0.09769604      -0.00050125 </v>
   <v>       0.23844103      -0.07724448       0.06977834 </v>
   <v>       0.33022302       0.02136004       0.01330134 </v>
   <v>       0.51914114      -0.88231670       0.66641074 </v>
   <v>      -0.91555314       0.78466913      -0.55401716 </v>
   <v>      -1.34667011       1.72380090       0.07137972 </v>
   <v>      -1.34385956      -0.25647803       1.36494623 </v>
   <v>       0.56408652       0.94750755       0.74451960 </v>
   <v>       1.23202476      -1.77177027       0.00149564 </v>
   <v>       0.97981161      -0.72199302      -0.62824030 </v>
  </varray>
  <varray name="stress" >
   <v>      -7.40991871      -0.19307281       0.30359453 </v>
   <v>      -0.19307313     -14.13578004       0.03279839 </v>
   <v>       0.30359440       0.03279844      -5.61169944 </v>
  </varray>
  <energy>
   <i name="e_fr_energy">   -315.81035891 </i>
   <i name="e_wo_entrp">   -315.81035891 </i>
   <i name="e_0_energy">      0.00000000 </i>
  </energy>
  <time name="totalsc"> 1543.02 1552.53</time>
 </calculation>
 <calculation>
  <scstep>
   <time name="dav">   66.55   66.79</time>
   <time name="total">   67.34   67.58</time>
   <energy>
    <i name="alphaZ">   1097.10672140 </i>
    <i name="ewald"> -31278.37207372 </i>
    <i name="hartreedc"> -13002.69783344 </i>
    <i name="XCdc">   1501.03609267 </i>
    <i name="pawpsdc">  43942.57089291 </i>
    <i name="pawaedc"> -43503.91077949 </i>
    <i name="eentropy">      0.00000000 </i>
    <i name="bandstr">  -4228.39329474 </i>
    <i name="atom">  45173.57650906 </i>
    <i name="e_fr_energy">   -299.08376537 </i>
    <i name="e_wo_entrp">   -299.08376537 </i>
    <i name="e_0_energy">   -299.08376537 </i>
   </energy>
  </scstep>
  <scstep>
   <time name="dav">   74.24   74.41</time>
   <time name="total">   75.04   75.22</time>
   <energy>
    <i name="e_fr_energy">   -301.60162338 </i>
    <i name="e_wo_entrp">   -301.60162338 </i>
    <i name="e_0_energy">   -301.60162338 </i>
   </energy>
  </scstep>
  <scstep>
   <time name="dav">   97.99   98.19</time>
   <time name="total">   98.78   98.99</time>
   <energy>
    <i name="e_fr_energy">   -301.38445270 </i>
    <i name="e_wo_entrp">   -301.38445270 </i>
    <i name="e_0_energy">   -301.38445270 </i>
   </energy>
  </scstep>
  <scstep>
   <time name="dav">   82.38   82.87</time>
   <time name="total">   83.17   83.67</time>
   <energy>
    <i name="e_fr_energy">   -301.26161924 </i>
    <i name="e_wo_entrp">   -301.26161924 </i>
    <i name="e_0_energy">   -301.26161924 </i>
   </energy>
  </scstep>
  <scstep>
   <time name="dav">   78.67   79.53</time>
   <time name="total">   79.46   80.32</time>
   <energy>
    <i name="e_fr_energy">   -301.26370154 </i>
    <i name="e_wo_entrp">   -301.26370154 </i>
    <i name="e_0_energy">   -301.26370154 </i>
   </energy>
  </scstep>
  <scstep>
   <time name="dav">   96.11   97.23</time>
   <time name="total">   96.91   98.03</time>
   <energy>
    <i name="e_fr_energy">   -301.26199545 </i>
    <i name="e_wo_entrp">   -301.26199545 </i>
    <i name="e_0_energy">   -301.26199545 </i>
   </energy>
  </scstep>
  <scstep>
   <time name="dav">   76.93   77.09</time>
   <time name="total">   77.79   77.95</time>
   <energy>
    <i name="e_fr_energy">   -301.26078391 </i>
    <i name="e_wo_entrp">   -301.26078391 </i>
    <i name="e_0_energy">   -301.26078391 </i>
   </energy>
  </scstep>
  <scstep>
   <time name="dav">   94.31   94.96</time>
   <time name="total">   95.11   95.76</time>
   <energy>
    <i name="e_fr_energy">   -301.26072639 </i>
    <i name="e_wo_entrp">   -301.26072639 </i>
    <i name="e_0_energy">   -301.26072639 </i>
   </energy>
  </scstep>
  <scstep>
   <time name="dav">   76.19   77.04</time>
   <time name="total">   77.00   77.86</time>
   <energy>
    <i name="e_fr_energy">   -301.26077634 </i>
    <i name="e_wo_entrp">   -301.26077634 </i>
    <i name="e_0_energy">   -301.26077634 </i>
   </energy>
  </scstep>
  <scstep>
   <time name="dav">   92.83   92.95</time>
   <time name="total">   93.63   93.74</time>
   <energy>
    <i name="e_fr_energy">   -301.26078087 </i>
    <i name="e_wo_entrp">   -301.26078087 </i>
    <i name="e_0_energy">   -301.26078087 </i>
   </energy>
  </scstep>
  <scstep>
   <time name="dav">   75.84   75.93</time>
   <time name="total">   76.63   76.73</time>
   <energy>
    <i name="e_fr_energy">   -301.26077999 </i>
    <i name="e_wo_entrp">   -301.26077999 </i>
    <i name="e_0_energy">   -301.26077999 </i>
   </energy>
  </scstep>
  <scstep>
   <time name="dav">   67.91   68.00</time>
   <time name="total">   68.02   68.11</time>
   <energy>
    <i name="alphaZ">   1097.10672140 </i>
    <i name="ewald"> -31278.37207372 </i>
    <i name="hartreedc"> -12858.66011798 </i>
    <i name="XCdc">   1494.48291450 </i>
    <i name="pawpsdc">  44311.85785806 </i>
    <i name="pawaedc"> -43876.22705674 </i>
    <i name="eentropy">      0.00000000 </i>
    <i name="bandstr">  -4365.02553447 </i>
    <i name="atom">  45173.57650906 </i>
    <i name="e_fr_energy">   -301.26077989 </i>
    <i name="e_wo_entrp">   -301.26077989 </i>
    <i name="e_0_energy">   -301.26077989 </i>
   </energy>
  </scstep>
  <structure>
   <crystal>
    <varray name="basis" >
     <v>      11.13035346      -0.00125451       0.00197263 </v>
     <v>      -0.00107451       9.49593011       0.00018253 </v>
     <v>       0.00197332       0.00021318      11.14592481 </v>
    </varray>
    <i name="volume">   1178.04683153 </i>
    <varray name="rec_basis" >
     <v>       0.08984441       0.00001017      -0.00001591 </v>
     <v>       0.00001187       0.10530827      -0.00000202 </v>
     <v>      -0.00001590      -0.00000173       0.08971889 </v>
    </varray>
   </crystal>
   <varray name="positions" >
    <v>       0.37306985       0.00015455       0.43670845 </v>
    <v>       0.12622453       0.99915739       0.18890744 </v>
    <v>       0.37380196       0.00047024       0.18566785 </v>
    <v>       0.62450622       0.00018797       0.43633111 </v>
    <v>       0.87765691       0.00016197       0.43460628 </v>
    <v>       0.62306653       0.00049777       0.18674201 </v>
    <v>       0.87545771      -0.00014463       0.18991956 </v>
    <v>       0.13054499       0.00018065       0.93744788 </v>
    <v>       0.12833919       0.00048968       0.68485983 </v>
    <v>       0.37379629      -0.00015272       0.68813398 </v>
    <v>       0.62019077       0.99948516       0.93744561 </v>
    <v>       0.62092321       0.99919041       0.68705417 </v>
    <v>       0.87556776       0.00013102       0.94170696 </v>
    <v>       0.87589348       0.00067438       0.68134899 </v>
    <v>       0.00228790       0.30075887       0.06455480 </v>
    <v>       0.25156623       0.70991113       0.06293788 </v>
    <v>       0.24985812       0.28981062       0.31326370 </v>
    <v>       0.49846562       0.70488494       0.31261395 </v>
    <v>       0.49802872       0.29006863       0.06277004 </v>
    <v>       0.74859243       0.69924732       0.06435384 </v>
    <v>       0.74935115       0.29551407       0.31275136 </v>
    <v>       0.00184858       0.70977160       0.31339616 </v>
    <v>       0.00272733       0.29576024       0.56064449 </v>
    <v>       0.25029572       0.71000597       0.56167951 </v>
    <v>       0.25164322       0.29027562       0.81329499 </v>
    <v>       0.49758166       0.70971751       0.81343543 </v>
    <v>       0.49844199       0.29523162       0.56233948 </v>
    <v>       0.74892216       0.69924256       0.56128548 </v>
    <v>       0.74757926       0.30585975       0.81281008 </v>
    <v>       0.00282363       0.69413976       0.81260781 </v>
    <v>       0.24870055       0.32791048       0.06254271 </v>
    <v>      -0.00152990       0.67279324       0.06122317 </v>
    <v>       0.50111389       0.32807666       0.31334145 </v>
    <v>       0.25010683       0.67189824       0.31281475 </v>
    <v>       0.75129566       0.32700831       0.06164725 </v>
    <v>       0.50166607       0.67229805       0.06300258 </v>
    <v>       0.99885722       0.32755799       0.31244746 </v>
    <v>       0.74980398       0.67245022       0.31288631 </v>
    <v>       0.24969918       0.32795614       0.56321290 </v>
    <v>      -0.00159799       0.67298194       0.56453261 </v>
    <v>       0.50189653       0.32754405       0.81238723 </v>
    <v>       0.24831318       0.67222953       0.81284951 </v>
    <v>       0.75054453       0.32704347       0.56403346 </v>
    <v>       0.50159346       0.67208505       0.56272621 </v>
    <v>       0.99792767       0.32666364       0.81320781 </v>
    <v>       0.75161621       0.67356588       0.81287792 </v>
    <v>       0.50377604       0.08202019       0.06484656 </v>
    <v>       0.24632572       0.91772159       0.06453518 </v>
    <v>       0.25262620       0.08272789       0.30992235 </v>
    <v>      -0.00343319       0.91825913       0.30957093 </v>
    <v>       0.99635797       0.07331479       0.05885250 </v>
    <v>       0.75308819       0.92694301       0.05911426 </v>
    <v>       0.75017697       0.07748775       0.31245784 </v>
    <v>       0.50115903       0.92163080       0.31276103 </v>
    <v>       0.50129513       0.07808762       0.56251738 </v>
    <v>       0.25211044       0.91757435       0.56533500 </v>
    <v>       0.24617878       0.08193364       0.81006988 </v>
    <v>      -0.00568178       0.93070556       0.81276794 </v>
    <v>       0.99407035       0.07668771       0.56834860 </v>
    <v>       0.75230441       0.92679412       0.56567198 </v>
    <v>       0.75544701       0.06905274       0.81246645 </v>
    <v>       0.50435854       0.91838216       0.80974967 </v>
   </varray>
  </structure>
  <varray name="forces" >
   <v>      -0.33583659      -0.00590921      -0.02181677 </v>
   <v>       0.13602081      -0.07374842       0.26402768 </v>
   <v>      -0.08332364       0.02851922      -0.19293638 </v>
   <v>      -0.05719550       0.03912525      -0.00888729 </v>
   <v>       0.30822974       0.00773098      -0.29365427 </v>
   <v>      -0.11225922       0.06691507      -0.04728946 </v>
   <v>       0.08863416      -0.03140787       0.35894331 </v>
   <v>       0.58659033       0.03550987       0.00646978 </v>
   <v>       0.35259687       0.07876181      -0.22525362 </v>
   <v>      -0.07677396      -0.03470061       0.21140601 </v>
   <v>      -0.58408415      -0.03716588       0.00355768 </v>
   <v>      -0.30611074      -0.06756540       0.08234341 </v>
   <v>      -0.05932788      -0.01826351      -0.00538493 </v>
   <v>      -0.14125624      -0.07245616       0.18521917 </v>
   <v>       0.14512318      -0.03035083       0.03959861 </v>
   <v>       0.13457824      -1.13672294      -0.02363166 </v>
   <v>      -0.00843351       1.28341446       0.09346504 </v>
   <v>      -0.11605361      -0.40425808       0.00981265 </v>
   <v>      -0.19953644       1.04310571      -0.01308985 </v>
   <v>      -0.08911525       0.07407351       0.05498839 </v>
   <v>      -0.10438560       0.20933445      -0.01475158 </v>
   <v>       0.23734766      -0.95714335       0.07493343 </v>
   <v>       0.24030938       0.04787597      -0.13284814 </v>
   <v>      -0.03207758      -1.18897828      -0.17240345 </v>
   <v>       0.12316393       1.00932852       0.09699135 </v>
   <v>      -0.16769468      -0.89943107       0.07560561 </v>
   <v>      -0.09349295       0.33266686      -0.08887519 </v>
   <v>      -0.13478982       0.06106151      -0.04944008 </v>
   <v>      -0.08197966      -0.14080397      -0.00826158 </v>
   <v>       0.15002726       0.09261774       0.00681641 </v>
   <v>      -0.17354258       0.13587330      -0.01644528 </v>
   <v>      -0.14995481      -0.21114128      -0.15159059 </v>
   <v>       0.12246266       0.23001128       0.05521889 </v>
   <v>       0.03079518      -0.15762142      -0.01949934 </v>
   <v>       0.11071647       0.18317785      -0.11028718 </v>
   <v>       0.19162167      -0.10547416       0.02848610 </v>
   <v>      -0.10782683       0.08924462      -0.04220816 </v>
   <v>      -0.01575728      -0.16459649       0.00395902 </v>
   <v>      -0.04359342       0.14058775       0.04231751 </v>
   <v>      -0.17148259      -0.09387673       0.16493804 </v>
   <v>       0.20079694       0.09655186      -0.05374044 </v>
   <v>      -0.17932664      -0.12805321      -0.01007155 </v>
   <v>       0.06124268       0.18316875       0.10030365 </v>
   <v>       0.16424339      -0.21027108      -0.02055838 </v>
   <v>      -0.16240420       0.26083847       0.02224756 </v>
   <v>       0.12389947      -0.23962471       0.00660249 </v>
   <v>       0.55152745      -1.19002521       0.48638717 </v>
   <v>      -0.54432605       1.25998123       0.48665209 </v>
   <v>       0.49997656      -1.40246265      -0.51471156 </v>
   <v>      -0.53601631       1.11477705      -0.51626739 </v>
   <v>      -0.06778094       0.42237630      -0.05299621 </v>
   <v>       0.10844745      -0.41214963      -0.09120473 </v>
   <v>       0.00481124      -0.19629269       0.00687568 </v>
   <v>       0.02303739       0.35002869       0.00583036 </v>
   <v>       0.02399363      -0.28701589      -0.00510455 </v>
   <v>       0.50535133       1.31043820       0.51582671 </v>
   <v>      -0.54339330      -1.13980179      -0.50141290 </v>
   <v>      -0.39910670      -0.63987958      -0.02755800 </v>
   <v>      -0.40465720       0.19358219       0.38240213 </v>
   <v>       0.11144383      -0.40606820       0.07126562 </v>
   <v>       0.41348372       0.64836572      -0.01657838 </v>
   <v>       0.53242327       1.05421611      -0.49473268 </v>
  </varray>
  <varray name="stress" >
   <v>       6.48846223       0.86619449      -0.45041084 </v>
   <v>       0.86619462      10.19859052      -0.26255495 </v>
   <v>      -0.45041094      -0.26255506       4.36599426 </v>
  </varray>
  <energy>
   <i name="e_fr_energy">   -317.29386315 </i>
   <i name="e_wo_entrp">   -317.29386315 </i>
   <i name="e_0_energy">      0.00000000 </i>
  </energy>
  <time name="totalsc"> 1101.82 1107.04</time>
 </calculation>
 <calculation>
  <scstep>
   <time name="dav">   71.59   71.78</time>
   <time name="total">   72.38   72.57</time>
   <energy>
    <i name="alphaZ">   1095.32746658 </i>
    <i name="ewald"> -31264.53720449 </i>
    <i name="hartreedc"> -12849.84258749 </i>
    <i name="XCdc">   1493.48763074 </i>
    <i name="pawpsdc">  44311.77118268 </i>
    <i name="pawaedc"> -43876.14192406 </i>
    <i name="eentropy">      0.00000000 </i>
    <i name="bandstr">  -4384.92421797 </i>
    <i name="atom">  45173.57650906 </i>
    <i name="e_fr_energy">   -301.28314494 </i>
    <i name="e_wo_entrp">   -301.28314494 </i>
    <i name="e_0_energy">   -301.28314494 </i>
   </energy>
  </scstep>
  <scstep>
   <time name="dav">   71.40   71.63</time>
   <time name="total">   72.20   72.43</time>
   <energy>
    <i name="e_fr_energy">   -301.30470475 </i>
    <i name="e_wo_entrp">   -301.30470475 </i>
    <i name="e_0_energy">   -301.30470475 </i>
   </energy>
  </scstep>
  <scstep>
   <time name="dav">   94.80   94.90</time>
   <time name="total">   95.60   95.70</time>
   <energy>
    <i name="e_fr_energy">   -301.30276557 </i>
    <i name="e_wo_entrp">   -301.30276557 </i>
    <i name="e_0_energy">   -301.30276557 </i>
   </energy>
  </scstep>
  <scstep>
   <time name="dav">   81.47   81.54</time>
   <time name="total">   82.26   82.34</time>
   <energy>
    <i name="e_fr_energy">   -301.30163824 </i>
    <i name="e_wo_entrp">   -301.30163824 </i>
    <i name="e_0_energy">   -301.30163824 </i>
   </energy>
  </scstep>
  <scstep>
   <time name="dav">   84.40   84.47</time>
   <time name="total">   85.20   85.27</time>
   <energy>
    <i name="e_fr_energy">   -301.30159878 </i>
    <i name="e_wo_entrp">   -301.30159878 </i>
    <i name="e_0_energy">   -301.30159878 </i>
   </energy>
  </scstep>
  <scstep>
   <time name="dav">   84.47   84.59</time>
   <time name="total">   85.26   85.39</time>
   <energy>
    <i name="e_fr_energy">   -301.30157783 </i>
    <i name="e_wo_entrp">   -301.30157783 </i>
    <i name="e_0_energy">   -301.30157783 </i>
   </energy>
  </scstep>
  <scstep>
   <time name="dav">   75.67   75.87</time>
   <time name="total">   76.47   76.67</time>
   <energy>
    <i name="e_fr_energy">   -301.30155337 </i>
    <i name="e_wo_entrp">   -301.30155337 </i>
    <i name="e_0_energy">   -301.30155337 </i>
   </energy>
  </scstep>
  <scstep>
   <time name="dav">   96.16   96.21</time>
   <time name="total">   96.95   97.00</time>
   <energy>
    <i name="e_fr_energy">   -301.30155100 </i>
    <i name="e_wo_entrp">   -301.30155100 </i>
    <i name="e_0_energy">   -301.30155100 </i>
   </energy>
  </scstep>
  <scstep>
   <time name="dav">   65.37   65.46</time>
   <time name="total">   65.44   65.54</time>
   <energy>
    <i name="alphaZ">   1095.32746658 </i>
    <i name="ewald"> -31264.53720449 </i>
    <i name="hartreedc"> -12864.73582783 </i>
    <i name="XCdc">   1494.16940310 </i>
    <i name="pawpsdc">  44266.34665741 </i>
    <i name="pawaedc"> -43830.28577149 </i>
    <i name="eentropy">      0.00000000 </i>
    <i name="bandstr">  -4371.16278384 </i>
    <i name="atom">  45173.57650906 </i>
    <i name="e_fr_energy">   -301.30155149 </i>
    <i name="e_wo_entrp">   -301.30155149 </i>
    <i name="e_0_energy">   -301.30155149 </i>
   </energy>
  </scstep>
  <structure>
   <crystal>
    <varray name="basis" >
     <v>      11.13527515      -0.00112627       0.00177098 </v>
     <v>      -0.00096467       9.50397200       0.00016387 </v>
     <v>       0.00177160       0.00019139      11.14965342 </v>
    </varray>
    <i name="volume">   1179.96045605 </i>
    <varray name="rec_basis" >
     <v>       0.08980470       0.00000912      -0.00001427 </v>
     <v>       0.00001064       0.10521917      -0.00000181 </v>
     <v>      -0.00001426      -0.00000155       0.08968889 </v>
    </varray>
   </crystal>
   <varray name="positions" >
    <v>       0.37330805       0.00015617       0.43672497 </v>
    <v>       0.12605882       0.99922773       0.18869851 </v>
    <v>       0.37388489       0.00043931       0.18579113 </v>
    <v>       0.62459694       0.00015211       0.43638637 </v>
    <v>       0.87742413       0.00016276       0.43483848 </v>
    <v>       0.62322498       0.00043000       0.18675511 </v>
    <v>       0.87537074      -0.00011221       0.18960682 </v>
    <v>       0.13001576       0.00014547       0.93738871 </v>
    <v>       0.12795629       0.00042266       0.68506606 </v>
    <v>       0.37387986      -0.00011944       0.68800434 </v>
    <v>       0.62072457       0.99952181       0.93738648 </v>
    <v>       0.62130173       0.99925741       0.68703522 </v>
    <v>       0.87554960       0.00013504       0.94121089 </v>
    <v>       0.87576160       0.00062237       0.68191524 </v>
    <v>       0.00206633       0.30018486       0.06437591 </v>
    <v>       0.25141873       0.70938534       0.06292480 </v>
    <v>       0.24985940       0.29036508       0.31321819 </v>
    <v>       0.49860980       0.70487724       0.31263506 </v>
    <v>       0.49824450       0.29059652       0.06277409 </v>
    <v>       0.74875037       0.69982069       0.06419547 </v>
    <v>       0.74940442       0.29548067       0.31275839 </v>
    <v>       0.00164541       0.70926019       0.31333711 </v>
    <v>       0.00246063       0.29570142       0.56086662 </v>
    <v>       0.25027864       0.70947042       0.56179546 </v>
    <v>       0.25146123       0.29078213       0.81324630 </v>
    <v>       0.49781656       0.70921173       0.81337228 </v>
    <v>       0.49861528       0.29522736       0.56238770 </v>
    <v>       0.74904619       0.69981640       0.56144180 </v>
    <v>       0.74781433       0.30476005       0.81281108 </v>
    <v>       0.00252049       0.69523950       0.81262961 </v>
    <v>       0.24883907       0.32779295       0.06257523 </v>
    <v>      -0.00136773       0.67283828       0.06139101 </v>
    <v>       0.50099439       0.32794197       0.31329209 </v>
    <v>       0.25009074       0.67203551       0.31281939 </v>
    <v>       0.75116775       0.32698372       0.06177165 </v>
    <v>       0.50150017       0.67239408       0.06298798 </v>
    <v>       0.99896939       0.32747678       0.31248975 </v>
    <v>       0.74981898       0.67253059       0.31288361 </v>
    <v>       0.24973520       0.32783389       0.56317670 </v>
    <v>      -0.00142877       0.67300753       0.56436104 </v>
    <v>       0.50169668       0.32746424       0.81243575 </v>
    <v>       0.24848124       0.67233267       0.81285056 </v>
    <v>       0.75049378       0.32701528       0.56391312 </v>
    <v>       0.50143501       0.67220304       0.56273996 </v>
    <v>       0.99813530       0.32667463       0.81317211 </v>
    <v>       0.75144514       0.67353124       0.81287612 </v>
    <v>       0.50337503       0.08160372       0.06460188 </v>
    <v>       0.24668967       0.91816468       0.06432228 </v>
    <v>       0.25236984       0.08223849       0.31018266 </v>
    <v>      -0.00306739       0.91864680       0.30986715 </v>
    <v>       0.99671851       0.07379567       0.05922241 </v>
    <v>       0.75275768       0.92643555       0.05945746 </v>
    <v>       0.75017215       0.07753848       0.31245806 </v>
    <v>       0.50105339       0.92167090       0.31273018 </v>
    <v>       0.50114882       0.07807651       0.56251152 </v>
    <v>       0.25188052       0.91803254       0.56504018 </v>
    <v>       0.24658435       0.08152619       0.81031494 </v>
    <v>      -0.00508519       0.92981042       0.81273627 </v>
    <v>       0.99466590       0.07682100       0.56774457 </v>
    <v>       0.75205449       0.92630202       0.56534262 </v>
    <v>       0.75490122       0.06997280       0.81246587 </v>
    <v>       0.50392440       0.91875705       0.81002771 </v>
   </varray>
  </structure>
  <varray name="forces" >
   <v>      -0.35714965      -0.00554063      -0.02361219 </v>
   <v>       0.16016573      -0.07983630       0.28468180 </v>
   <v>      -0.09440955       0.03229728      -0.20192442 </v>
   <v>      -0.07261468       0.04192971      -0.02058005 </v>
   <v>       0.33133762       0.00586797      -0.31771172 </v>
   <v>      -0.13834054       0.07393187      -0.04684733 </v>
   <v>       0.10140144      -0.03584557       0.39616604 </v>
   <v>       0.64847820       0.03799558       0.01854402 </v>
   <v>       0.40507232       0.08296826      -0.24846654 </v>
   <v>      -0.08848490      -0.03816659       0.22000425 </v>
   <v>      -0.64763977      -0.03976920       0.01593485 </v>
   <v>      -0.36342130      -0.07458427       0.08083001 </v>
   <v>      -0.04722442      -0.01650894       0.12377466 </v>
   <v>      -0.07976642      -0.04436117       0.01214905 </v>
   <v>       0.18446176       0.06525573       0.07825858 </v>
   <v>       0.14929387      -0.86318328      -0.01589568 </v>
   <v>      -0.00445450       0.97961831       0.09106131 </v>
   <v>      -0.13781056      -0.35850114       0.00404637 </v>
   <v>      -0.22321912       0.78290514      -0.00989233 </v>
   <v>      -0.11886391      -0.02526233       0.08676751 </v>
   <v>      -0.10651241       0.19361828      -0.01479328 </v>
   <v>       0.25604527      -0.71383210       0.07711760 </v>
   <v>       0.28009739       0.05685589      -0.17154431 </v>
   <v>      -0.02195997      -0.90448867      -0.17799695 </v>
   <v>       0.14620545       0.75961763       0.09586697 </v>
   <v>      -0.19845515      -0.66577135       0.07986983 </v>
   <v>      -0.12435210       0.29732983      -0.09136422 </v>
   <v>      -0.15195891      -0.03789874      -0.08128383 </v>
   <v>      -0.13072945       0.01934564      -0.00830513 </v>
   <v>       0.20820165      -0.06423061       0.00053603 </v>
   <v>      -0.18929671       0.14623532      -0.02272959 </v>
   <v>      -0.17228294      -0.19939138      -0.17577492 </v>
   <v>       0.13840539       0.23360053       0.06145098 </v>
   <v>       0.03124715      -0.16990841      -0.01779472 </v>
   <v>       0.12877325       0.17031822      -0.12852729 </v>
   <v>       0.21174331      -0.11448296       0.02909124 </v>
   <v>      -0.12280198       0.09665738      -0.04812835 </v>
   <v>      -0.01779946      -0.16379530       0.00427578 </v>
   <v>      -0.04808331       0.15110166       0.04566220 </v>
   <v>      -0.19335494      -0.09054109       0.18874278 </v>
   <v>       0.22941811       0.10328815      -0.05939028 </v>
   <v>      -0.20313658      -0.13622091      -0.00891659 </v>
   <v>       0.06671801       0.17071957       0.11854001 </v>
   <v>       0.18565445      -0.21247437      -0.02212796 </v>
   <v>      -0.19418932       0.23433995       0.02797417 </v>
   <v>       0.15072249      -0.21132266       0.00629521 </v>
   <v>       0.58253252      -0.93925373       0.49179239 </v>
   <v>      -0.56760179       0.99199359       0.48419149 </v>
   <v>       0.50501342      -1.10100122      -0.51833880 </v>
   <v>      -0.56178387       0.88226156      -0.52964087 </v>
   <v>      -0.15949262       0.29661814      -0.14696041 </v>
   <v>       0.18729640      -0.28442186      -0.17320486 </v>
   <v>       0.00534106      -0.18492589       0.00605602 </v>
   <v>       0.04536882       0.30371920       0.01253106 </v>
   <v>       0.05567870      -0.25376145      -0.00324521 </v>
   <v>       0.50464730       1.03084485       0.52674310 </v>
   <v>      -0.57642541      -0.89822402      -0.50439593 </v>
   <v>      -0.50454153      -0.46124215      -0.01656852 </v>
   <v>      -0.52788686       0.12964165       0.50755364 </v>
   <v>       0.16898121      -0.28219647       0.15013026 </v>
   <v>       0.50428994       0.46678856      -0.01369558 </v>
   <v>       0.57345241       0.83327929      -0.50698133 </v>
  </varray>
  <varray name="stress" >
   <v>       4.85602726       0.72337371      -0.36369212 </v>
   <v>       0.72337339       6.39042468      -0.22143171 </v>
   <v>      -0.36369236      -0.22143198       3.17863773 </v>
  </varray>
  <energy>
   <i name="e_fr_energy">   -317.31471050 </i>
   <i name="e_wo_entrp">   -317.31471050 </i>
   <i name="e_0_energy">      0.00000000 </i>
  </energy>
  <time name="totalsc">  844.67  846.07</time>
 </calculation>
 <calculation>
  <scstep>
   <time name="dav">   69.36   69.46</time>
   <time name="total">   70.15   70.25</time>
   <energy>
    <i name="alphaZ">   1091.60474025 </i>
    <i name="ewald"> -31352.37515111 </i>
    <i name="hartreedc"> -12736.59101896 </i>
    <i name="XCdc">   1491.46191672 </i>
    <i name="pawpsdc">  44266.49633910 </i>
    <i name="pawaedc"> -43830.43595776 </i>
    <i name="eentropy">      0.00000000 </i>
    <i name="bandstr">  -4404.68368220 </i>
    <i name="atom">  45173.57650906 </i>
    <i name="e_fr_energy">   -300.94630490 </i>
    <i name="e_wo_entrp">   -300.94630490 </i>
    <i name="e_0_energy">   -300.94630490 </i>
   </energy>
  </scstep>
  <scstep>
   <time name="dav">   75.04   75.15</time>
   <time name="total">   75.83   75.95</time>
   <energy>
    <i name="e_fr_energy">   -301.84756930 </i>
    <i name="e_wo_entrp">   -301.84756930 </i>
    <i name="e_0_energy">   -301.84756930 </i>
   </energy>
  </scstep>
  <scstep>
   <time name="dav">   99.10   99.26</time>
   <time name="total">   99.89  100.06</time>
   <energy>
    <i name="e_fr_energy">   -301.84310105 </i>
    <i name="e_wo_entrp">   -301.84310105 </i>
    <i name="e_0_energy">   -301.84310105 </i>
   </energy>
  </scstep>
  <scstep>
   <time name="dav">   80.13   80.31</time>
   <time name="total">   80.92   81.11</time>
   <energy>
    <i name="e_fr_energy">   -301.82365256 </i>
    <i name="e_wo_entrp">   -301.82365256 </i>
    <i name="e_0_energy">   -301.82365256 </i>
   </energy>
  </scstep>
  <scstep>
   <time name="dav">   80.12   80.24</time>
   <time name="total">   80.93   81.05</time>
   <energy>
    <i name="e_fr_energy">   -301.81465546 </i>
    <i name="e_wo_entrp">   -301.81465546 </i>
    <i name="e_0_energy">   -301.81465546 </i>
   </energy>
  </scstep>
  <scstep>
   <time name="dav">   80.97   81.06</time>
   <time name="total">   81.77   81.87</time>
   <energy>
    <i name="e_fr_energy">   -301.81499774 </i>
    <i name="e_wo_entrp">   -301.81499774 </i>
    <i name="e_0_energy">   -301.81499774 </i>
   </energy>
  </scstep>
  <scstep>
   <time name="dav">   90.34   90.45</time>
   <time name="total">   91.13   91.24</time>
   <energy>
    <i name="e_fr_energy">   -301.81499458 </i>
    <i name="e_wo_entrp">   -301.81499458 </i>
    <i name="e_0_energy">   -301.81499458 </i>
   </energy>
  </scstep>
  <scstep>
   <time name="dav">   79.80   79.94</time>
   <time name="total">   80.59   80.74</time>
   <energy>
    <i name="e_fr_energy">   -301.81495745 </i>
    <i name="e_wo_entrp">   -301.81495745 </i>
    <i name="e_0_energy">   -301.81495745 </i>
   </energy>
  </scstep>
  <scstep>
   <time name="dav">   81.02   81.11</time>
   <time name="total">   81.86   81.95</time>
   <energy>
    <i name="e_fr_energy">   -301.81496575 </i>
    <i name="e_wo_entrp">   -301.81496575 </i>
    <i name="e_0_energy">   -301.81496575 </i>
   </energy>
  </scstep>
  <scstep>
   <time name="dav">   72.33   72.50</time>
   <time name="total">   73.13   73.31</time>
   <energy>
    <i name="e_fr_energy">   -301.81496475 </i>
    <i name="e_wo_entrp">   -301.81496475 </i>
    <i name="e_0_energy">   -301.81496475 </i>
   </energy>
  </scstep>
  <scstep>
   <time name="dav">   70.98   71.24</time>
   <time name="total">   71.77   72.04</time>
   <energy>
    <i name="e_fr_energy">   -301.81496630 </i>
    <i name="e_wo_entrp">   -301.81496630 </i>
    <i name="e_0_energy">   -301.81496630 </i>
   </energy>
  </scstep>
  <scstep>
   <time name="dav">   61.57   61.84</time>
   <time name="total">   61.64   61.91</time>
   <energy>
    <i name="alphaZ">   1091.60474025 </i>
    <i name="ewald"> -31352.37515111 </i>
    <i name="hartreedc"> -12763.20724754 </i>
    <i name="XCdc">   1492.69331814 </i>
    <i name="pawpsdc">  44015.66799736 </i>
    <i name="pawaedc"> -43576.00109958 </i>
    <i name="eentropy">      0.00000000 </i>
    <i name="bandstr">  -4383.77403340 </i>
    <i name="atom">  45173.57650906 </i>
    <i name="e_fr_energy">   -301.81496681 </i>
    <i name="e_wo_entrp">   -301.81496681 </i>
    <i name="e_0_energy">   -301.81496681 </i>
   </energy>
  </scstep>
  <structure>
   <crystal>
    <varray name="basis" >
     <v>      11.15137645       0.00302247       0.00008314 </v>
     <v>       0.00257614       9.51485991      -0.00096333 </v>
     <v>       0.00008263      -0.00113045      11.15874053 </v>
    </varray>
    <i name="volume">   1183.98450403 </i>
    <varray name="rec_basis" >
     <v>       0.08967504      -0.00002428      -0.00000067 </v>
     <v>      -0.00002849       0.10509877       0.00001065 </v>
     <v>      -0.00000067       0.00000907       0.08961585 </v>
    </varray>
   </crystal>
   <varray name="positions" >
    <v>       0.37110027       0.00012374       0.43657710 </v>
    <v>       0.12721982       0.99862652       0.19051213 </v>
    <v>       0.37324341       0.00068972       0.18457713 </v>
    <v>       0.62402520       0.00046470       0.43613863 </v>
    <v>       0.87950683       0.00018982       0.43281693 </v>
    <v>       0.62217755       0.00099439       0.18651856 </v>
    <v>       0.87605351      -0.00038460       0.19219465 </v>
    <v>       0.13430553       0.00043688       0.93763884 </v>
    <v>       0.13078810       0.00103006       0.68341343 </v>
    <v>       0.37326137      -0.00040592       0.68931359 </v>
    <v>       0.61642508       0.99921732       0.93762625 </v>
    <v>       0.61865953       0.99869178       0.68743312 </v>
    <v>       0.87540189       0.00004123       0.94317704 </v>
    <v>       0.87580620       0.00055282       0.68032134 </v>
    <v>       0.00349291       0.30217657       0.06522733 </v>
    <v>       0.25248050       0.70662054       0.06289541 </v>
    <v>       0.24983715       0.29362563       0.31373633 </v>
    <v>       0.49760588       0.70311699       0.31259099 </v>
    <v>       0.49667059       0.29295603       0.06272047 </v>
    <v>       0.74778698       0.69802972       0.06502350 </v>
    <v>       0.74879772       0.29654034       0.31267531 </v>
    <v>       0.00332199       0.70719630       0.31383544 </v>
    <v>       0.00442437       0.29615509       0.55949387 </v>
    <v>       0.25023480       0.70652853       0.56070418 </v>
    <v>       0.25261077       0.29308812       0.81379396 </v>
    <v>       0.49629148       0.70737024       0.81389447 </v>
    <v>       0.49758422       0.29671811       0.56186039 </v>
    <v>       0.74804097       0.69796120       0.56064313 </v>
    <v>       0.74657649       0.30805017       0.81277307 </v>
    <v>       0.00428485       0.69172612       0.81256842 </v>
    <v>       0.24763330       0.32886134       0.06238450 </v>
    <v>      -0.00257006       0.67171599       0.06015841 </v>
    <v>       0.50192902       0.32949476       0.31369586 </v>
    <v>       0.25027004       0.67079203       0.31273048 </v>
    <v>       0.75208605       0.32790206       0.06086532 </v>
    <v>       0.50288075       0.67154602       0.06315357 </v>
    <v>       0.99812237       0.32819319       0.31216295 </v>
    <v>       0.74969978       0.67148271       0.31290960 </v>
    <v>       0.24942654       0.32894024       0.56347544 </v>
    <v>      -0.00274119       0.67248290       0.56565969 </v>
    <v>       0.50325108       0.32820973       0.81204288 </v>
[...]
       <r>   11.4293    0.0000 </r>
       <r>   11.5233    0.0000 </r>
       <r>   11.6152    0.0000 </r>
       <r>   11.6535    0.0000 </r>
      </set>
     </set>
    </set>
   </array>
  </eigenvalues>
  <separator name="orbital magnetization" >
   <v name="MAGDIPOLOUT">      0.00000000      0.00000000      0.00000000</v>
  </separator>
  <dos>
   <i name="efermi">      4.40721527 </i>
   <total>
    <array>
     <dimension dim="1">gridpoints</dimension>
     <dimension dim="2">spin</dimension>
     <field>energy</field>
     <field>total</field>
     <field>integrated</field>
     <set>
      <set comment="spin 1">
       <r>   -42.5007     0.0000     0.0000 </r>
       <r>   -42.3089     0.0000     0.0000 </r>
       <r>   -42.1170     0.0000     0.0000 </r>
       <r>   -41.9252     0.0000     0.0000 </r>
       <r>   -41.7333     0.0000     0.0000 </r>
       <r>   -41.5414     0.0000     0.0000 </r>
       <r>   -41.3496     0.0000     0.0000 </r>
       <r>   -41.1577     0.0000     0.0000 </r>
       <r>   -40.9659     0.0000     0.0000 </r>
       <r>   -40.7740     0.0000     0.0000 </r>
       <r>   -40.5822     0.0000     0.0000 </r>
       <r>   -40.3903     0.0000     0.0000 </r>
       <r>   -40.1985     0.0000     0.0000 </r>
       <r>   -40.0066     0.0000     0.0000 </r>
       <r>   -39.8148     0.0000     2.0000 </r>
       <r>   -39.6229     0.0000     6.0000 </r>
       <r>   -39.4311     0.0000    14.0000 </r>
       <r>   -39.2392     0.0000    20.0000 </r>
       <r>   -39.0474     0.0000    22.0000 </r>
       <r>   -38.8555     0.0000    24.0000 </r>
       <r>   -38.6637     0.0000    24.0000 </r>
       <r>   -38.4718     0.0000    24.0000 </r>
       <r>   -38.2800     0.0000    24.0000 </r>
       <r>   -38.0881     0.0000    24.0000 </r>
       <r>   -37.8963     0.0000    24.0000 </r>
       <r>   -37.7044     0.0000    24.0000 </r>
       <r>   -37.5125     0.0000    24.0000 </r>
       <r>   -37.3207     0.0000    24.0000 </r>
       <r>   -37.1288     0.0000    24.0000 </r>
       <r>   -36.9370     0.0000    24.0000 </r>
       <r>   -36.7451     0.0000    24.0000 </r>
       <r>   -36.5533     0.0000    24.0000 </r>
       <r>   -36.3614     0.0000    24.0000 </r>
       <r>   -36.1696     0.0000    24.0000 </r>
       <r>   -35.9777     0.0000    24.0000 </r>
       <r>   -35.7859     0.0000    24.0000 </r>
       <r>   -35.5940     0.0000    24.0000 </r>
       <r>   -35.4022     0.0000    24.0000 </r>
       <r>   -35.2103     0.0000    24.0000 </r>
       <r>   -35.0185     0.0000    24.0000 </r>
       <r>   -34.8266     0.0000    24.0000 </r>
       <r>   -34.6348     0.0000    24.0000 </r>
       <r>   -34.4429     0.0000    24.0000 </r>
       <r>   -34.2511     0.0000    24.0000 </r>
       <r>   -34.0592     0.0000    24.0000 </r>
       <r>   -33.8673     0.0000    24.0000 </r>
       <r>   -33.6755     0.0000    24.0000 </r>
       <r>   -33.4836     0.0000    24.0000 </r>
       <r>   -33.2918     0.0000    24.0000 </r>
       <r>   -33.0999     0.0000    24.0000 </r>
       <r>   -32.9081     0.0000    24.0000 </r>
       <r>   -32.7162     0.0000    24.0000 </r>
       <r>   -32.5244     0.0000    24.0000 </r>
       <r>   -32.3325     0.0000    24.0000 </r>
       <r>   -32.1407     0.0000    24.0000 </r>
       <r>   -31.9488     0.0000    24.0000 </r>
       <r>   -31.7570     0.0000    24.0000 </r>
       <r>   -31.5651     0.0000    24.0000 </r>
       <r>   -31.3733     0.0000    24.0000 </r>
       <r>   -31.1814     0.0000    24.0000 </r>
       <r>   -30.9896     0.0000    24.0000 </r>
       <r>   -30.7977     0.0000    24.0000 </r>
       <r>   -30.6059     0.0000    24.0000 </r>
       <r>   -30.4140     0.0000    24.0000 </r>
       <r>   -30.2222     0.0000    24.0000 </r>
       <r>   -30.0303     0.0000    24.0000 </r>
       <r>   -29.8384     0.0000    24.0000 </r>
       <r>   -29.6466     0.0000    24.0000 </r>
       <r>   -29.4547     0.0000    24.0000 </r>
       <r>   -29.2629     0.0000    24.0000 </r>
       <r>   -29.0710     0.0000    24.0000 </r>
       <r>   -28.8792     0.0000    24.0000 </r>
       <r>   -28.6873     0.0000    24.0000 </r>
       <r>   -28.4955     0.0000    24.0000 </r>
       <r>   -28.3036     0.0000    24.0000 </r>
       <r>   -28.1118     0.0000    24.0000 </r>
       <r>   -27.9199     0.0000    24.0000 </r>
       <r>   -27.7281     0.0000    24.0000 </r>
       <r>   -27.5362     0.0000    24.0000 </r>
       <r>   -27.3444     0.0000    24.0000 </r>
       <r>   -27.1525     0.0000    24.0000 </r>
       <r>   -26.9607     0.0000    24.0000 </r>
       <r>   -26.7688     0.0000    24.0000 </r>
       <r>   -26.5770     0.0000    24.0000 </r>
       <r>   -26.3851     0.0000    24.0000 </r>
       <r>   -26.1933     0.0000    24.0000 </r>
       <r>   -26.0014     0.0000    24.0000 </r>
       <r>   -25.8095     0.0000    24.0000 </r>
       <r>   -25.6177     0.0000    24.0000 </r>
       <r>   -25.4258     0.0000    24.0000 </r>
       <r>   -25.2340     0.0000    24.0000 </r>
       <r>   -25.0421     0.0000    24.0000 </r>
       <r>   -24.8503     0.0000    24.0000 </r>
       <r>   -24.6584     0.0000    24.0000 </r>
       <r>   -24.4666     0.0000    24.0000 </r>
       <r>   -24.2747     0.0000    24.0000 </r>
       <r>   -24.0829     0.0000    24.0000 </r>
       <r>   -23.8910     0.0000    24.0000 </r>
       <r>   -23.6992     0.0000    24.0000 </r>
       <r>   -23.5073     0.0000    24.0000 </r>
       <r>   -23.3155     0.0000    24.0000 </r>
       <r>   -23.1236     0.0000    24.0000 </r>
       <r>   -22.9318     0.0000    24.0000 </r>
       <r>   -22.7399     0.0000    24.0000 </r>
       <r>   -22.5481     0.0000    24.0000 </r>
       <r>   -22.3562     0.0000    24.0000 </r>
       <r>   -22.1643     0.0000    24.0000 </r>
       <r>   -21.9725     0.0000    24.0000 </r>
       <r>   -21.7806     0.0000    24.0000 </r>
       <r>   -21.5888     0.0000    24.0000 </r>
       <r>   -21.3969     0.0000    24.0000 </r>
       <r>   -21.2051     0.0000    24.0000 </r>
       <r>   -21.0132     0.0000    24.0000 </r>
       <r>   -20.8214     0.0000    24.0000 </r>
       <r>   -20.6295     0.0000    24.0000 </r>
       <r>   -20.4377     0.0000    24.0000 </r>
       <r>   -20.2458     0.0000    24.0000 </r>
       <r>   -20.0540     0.0000    24.0000 </r>
       <r>   -19.8621     0.0000    24.0000 </r>
       <r>   -19.6703     0.0000    24.0000 </r>
       <r>   -19.4784     0.0000    24.0000 </r>
       <r>   -19.2866     0.0000    24.0000 </r>
       <r>   -19.0947     0.0000    24.0000 </r>
       <r>   -18.9029     0.0000    24.0000 </r>
       <r>   -18.7110     0.0000    24.0000 </r>
       <r>   -18.5192     0.0000    54.0000 </r>
       <r>   -18.3273     0.0000   150.0000 </r>
       <r>   -18.1354     0.0000   184.0000 </r>
       <r>   -17.9436     0.0000   184.0000 </r>
       <r>   -17.7517     0.0000   184.0000 </r>
       <r>   -17.5599     0.0000   184.0000 </r>
       <r>   -17.3680     0.0000   184.0000 </r>
       <r>   -17.1762     0.0000   184.0000 </r>
       <r>   -16.9843     0.0000   184.0000 </r>
       <r>   -16.7925     0.0000   184.0000 </r>
       <r>   -16.6006     0.0000   184.0000 </r>
       <r>   -16.4088     0.0000   184.0000 </r>
       <r>   -16.2169     0.0000   184.0000 </r>
       <r>   -16.0251     0.0000   184.0000 </r>
       <r>   -15.8332     0.0000   184.0000 </r>
       <r>   -15.6414     0.0000   184.0000 </r>
       <r>   -15.4495     0.0000   184.0000 </r>
       <r>   -15.2577     0.0000   184.0000 </r>
       <r>   -15.0658     0.0000   184.0000 </r>
       <r>   -14.8740     0.0000   184.0000 </r>
       <r>   -14.6821     0.0000   184.0000 </r>
       <r>   -14.4903     0.0000   184.0000 </r>
       <r>   -14.2984     0.0000   184.0000 </r>
       <r>   -14.1065     0.0000   184.0000 </r>
       <r>   -13.9147     0.0000   184.0000 </r>
       <r>   -13.7228     0.0000   184.0000 </r>
       <r>   -13.5310     0.0000   184.0000 </r>
       <r>   -13.3391     0.0000   184.0000 </r>
       <r>   -13.1473     0.0000   184.0000 </r>
       <r>   -12.9554     0.0000   186.0000 </r>
       <r>   -12.7636     0.0000   190.0000 </r>
       <r>   -12.5717     0.0000   198.0000 </r>
       <r>   -12.3799     0.0000   210.0000 </r>
       <r>   -12.1880     0.0000   216.0000 </r>
       <r>   -11.9962     0.0000   216.0000 </r>
       <r>   -11.8043     0.0000   216.0000 </r>
       <r>   -11.6125     0.0000   216.0000 </r>
       <r>   -11.4206     0.0000   216.0000 </r>
       <r>   -11.2288     0.0000   216.0000 </r>
       <r>   -11.0369     0.0000   216.0000 </r>
       <r>   -10.8451     0.0000   216.0000 </r>
       <r>   -10.6532     0.0000   216.0000 </r>
       <r>   -10.4614     0.0000   216.0000 </r>
       <r>   -10.2695     0.0000   216.0000 </r>
       <r>   -10.0776     0.0000   216.0000 </r>
       <r>    -9.8858     0.0000   216.0000 </r>
       <r>    -9.6939     0.0000   216.0000 </r>
       <r>    -9.5021     0.0000   216.0000 </r>
       <r>    -9.3102     0.3775   216.0015 </r>
       <r>    -9.1184     9.7468   217.5328 </r>
       <r>    -8.9265    11.7370   219.2925 </r>
       <r>    -8.7347     7.6586   220.2652 </r>
       <r>    -8.5428    11.6686   223.7779 </r>
       <r>    -8.3510    29.8362   227.8789 </r>
       <r>    -8.1591    10.7671   231.5813 </r>
       <r>    -7.9673    31.0244   233.3305 </r>
       <r>    -7.7754    27.3297   240.3357 </r>
       <r>    -7.5836     4.5272   244.0660 </r>
       <r>    -7.3917    14.4787   247.3678 </r>
       <r>    -7.1999     0.0000   248.0000 </r>
       <r>    -7.0080     0.0000   248.0000 </r>
       <r>    -6.8162     0.0000   248.0000 </r>
       <r>    -6.6243     0.0000   248.0000 </r>
       <r>    -6.4324     0.0000   248.0000 </r>
       <r>    -6.2406     0.0000   248.0000 </r>
       <r>    -6.0487    18.7305   249.3451 </r>
       <r>    -5.8569    18.8817   254.4693 </r>
       <r>    -5.6650    21.9885   257.2506 </r>
       <r>    -5.4732    25.6562   262.6814 </r>
       <r>    -5.2813    24.7680   267.4336 </r>
       <r>    -5.0895    10.5495   270.7419 </r>
       <r>    -4.8976     1.0482   272.0164 </r>
       <r>    -4.7058    10.2584   273.1020 </r>
       <r>    -4.5139     9.9859   275.4719 </r>
       <r>    -4.3221     4.3047   276.6311 </r>
       <r>    -4.1302     7.1358   277.7283 </r>
       <r>    -3.9384     5.0305   279.2736 </r>
       <r>    -3.7465     1.6838   279.7782 </r>
       <r>    -3.5547     0.4450   279.9824 </r>
       <r>    -3.3628     0.0000   280.0000 </r>
       <r>    -3.1710     0.0000   280.0000 </r>
       <r>    -2.9791     0.0000   280.0000 </r>
       <r>    -2.7873     0.0000   280.0000 </r>
       <r>    -2.5954     0.0000   280.0000 </r>
       <r>    -2.4035     0.0000   280.0000 </r>
       <r>    -2.2117     0.0000   280.0000 </r>
       <r>    -2.0198     0.0000   280.0000 </r>
       <r>    -1.8280     0.0000   280.0000 </r>
       <r>    -1.6361     0.0000   280.0000 </r>
       <r>    -1.4443     0.0000   280.0000 </r>
       <r>    -1.2524     0.2204   280.0015 </r>
       <r>    -1.0606     8.2521   280.9463 </r>
       <r>    -0.8687     5.3745   282.2538 </r>
       <r>    -0.6769    13.3711   283.8820 </r>
       <r>    -0.4850     9.3745   286.2614 </r>
       <r>    -0.2932    15.8966   288.1228 </r>
       <r>    -0.1013    28.3041   292.7008 </r>
       <r>     0.0905    36.6362   298.1281 </r>
       <r>     0.2824    36.3514   305.6555 </r>
       <r>     0.4742    42.2638   313.1121 </r>
       <r>     0.6661    29.1828   320.0145 </r>
       <r>     0.8579    35.2316   326.6902 </r>
       <r>     1.0498    32.1244   332.2936 </r>
       <r>     1.2416    55.8085   341.4742 </r>
       <r>     1.4335    51.0161   349.6793 </r>
       <r>     1.6254    48.8408   358.2297 </r>
       <r>     1.8172    48.4322   367.4634 </r>
       <r>     2.0091    55.1791   377.1606 </r>
       <r>     2.2009    45.9552   386.8995 </r>
       <r>     2.3928    51.1796   395.8201 </r>
       <r>     2.5846    71.7189   406.0758 </r>
       <r>     2.7765    60.3197   420.4184 </r>
       <r>     2.9683    64.4613   432.9160 </r>
       <r>     3.1602    44.0798   446.7359 </r>
       <r>     3.3520    23.8583   455.1548 </r>
       <r>     3.5439    33.3656   459.7057 </r>
       <r>     3.7357    18.7601   467.0437 </r>
       <r>     3.9276    11.1303   469.7919 </r>
       <r>     4.1194     5.7168   471.4078 </r>
       <r>     4.3113     0.5063   471.9887 </r>
       <r>     4.5031     0.0000   472.0000 </r>
       <r>     4.6950     0.0000   472.0000 </r>
       <r>     4.8868     0.0000   472.0000 </r>
       <r>     5.0787     0.0000   472.0000 </r>
       <r>     5.2706     0.0027   472.0000 </r>
       <r>     5.4624     3.9597   472.2864 </r>
       <r>     5.6543     9.3732   473.5653 </r>
       <r>     5.8461     8.5963   475.5193 </r>
       <r>     6.0380    15.2631   479.5631 </r>
       <r>     6.2298    12.8922   482.2406 </r>
       <r>     6.4217    12.2156   484.6327 </r>
       <r>     6.6135    13.5276   487.0927 </r>
       <r>     6.8054    14.9447   489.8241 </r>
       <r>     6.9972    16.8366   492.8511 </r>
       <r>     7.1891    20.7685   496.3829 </r>
       <r>     7.3809    24.8694   500.8472 </r>
       <r>     7.5728    40.7050   506.5340 </r>
       <r>     7.7646    27.4288   513.4784 </r>
       <r>     7.9565    37.4335   519.6918 </r>
       <r>     8.1483    35.1132   526.4766 </r>
       <r>     8.3402    33.8829   533.2839 </r>
       <r>     8.5320    20.8256   538.4984 </r>
       <r>     8.7239    31.4431   542.9086 </r>
       <r>     8.9157    31.7903   548.7926 </r>
       <r>     9.1076    40.3826   556.3036 </r>
       <r>     9.2995    23.3499   562.0492 </r>
       <r>     9.4913    13.3944   565.6809 </r>
       <r>     9.6832     9.5393   567.4147 </r>
       <r>     9.8750     5.0095   568.1525 </r>
       <r>    10.0669    12.3144   570.1466 </r>
       <r>    10.2587    12.5804   572.7118 </r>
       <r>    10.4506    25.1456   576.1795 </r>
       <r>    10.6424    33.4261   580.6723 </r>
       <r>    10.8343    38.0869   585.7064 </r>
       <r>    11.0261    31.0922   593.7538 </r>
       <r>    11.2180    20.9294   597.8225 </r>
       <r>    11.4098    28.5531   602.4904 </r>
       <r>    11.6017    29.1329   608.2312 </r>
       <r>    11.7935    18.1169   612.8284 </r>
       <r>    11.9854     6.8788   615.1781 </r>
       <r>    12.1772     1.5336   615.8824 </r>
       <r>    12.3691     0.0870   615.9980 </r>
       <r>    12.5609     0.0000   616.0000 </r>
       <r>    12.7528     0.0000   616.0000 </r>
       <r>    12.9446     0.0000   616.0000 </r>
       <r>    13.1365     0.0000   616.0000 </r>
       <r>    13.3284     0.0000   616.0000 </r>
       <r>    13.5202     0.0000   616.0000 </r>
       <r>    13.7121     0.0000   616.0000 </r>
       <r>    13.9039     0.0000   616.0000 </r>
       <r>    14.0958     0.0000   616.0000 </r>
       <r>    14.2876     0.0000   616.0000 </r>
       <r>    14.4795     0.0000   616.0000 </r>
       <r>    14.6713     0.0000   616.0000 </r>
       <r>    14.8632     0.0000   616.0000 </r>
       <r>    15.0550     0.0000   616.0000 </r>
      </set>
     </set>
    </array>
   </total>
  </dos>
 </calculation>
 <structure name="finalpos" >
  <crystal>
   <varray name="basis" >
    <v>      11.18596920      -0.00700271      -0.00198080 </v>
    <v>      -0.00631716       9.46230633      -0.00276024 </v>
    <v>      -0.00189991      -0.00347949      11.18565098 </v>
   </varray>
   <i name="volume">   1183.94534092 </i>
   <varray name="rec_basis" >
    <v>       0.08939775       0.00005969       0.00001520 </v>
    <v>       0.00006617       0.10568253       0.00003289 </v>
    <v>       0.00001585       0.00002609       0.08940026 </v>
   </varray>
  </crystal>
  <varray name="positions" >
   <v>       0.37912508       0.00085346       0.44247482 </v>
   <v>       0.15548938       0.97112482       0.24652472 </v>
   <v>       0.38290627       0.00331294       0.19093024 </v>
   <v>       0.63002909      -0.00166334       0.44266874 </v>
   <v>       0.90495758       0.01982730       0.41392290 </v>
   <v>       0.62788154       0.00134775       0.19997901 </v>
   <v>       0.87860732      -0.00262434       0.18143552 </v>
   <v>       0.17191176       0.03246020       0.97048780 </v>
   <v>       0.15500874       0.03448518       0.63488035 </v>
   <v>       0.37661680      -0.00670637       0.70427851 </v>
   <v>       0.56147242       0.96893230       0.96215674 </v>
   <v>       0.62049847       0.99744106       0.68658422 </v>
   <v>       0.86378442       0.00011213       0.93453777 </v>
   <v>       0.87403895      -0.00098678       0.67685451 </v>
   <v>      -0.00438451       0.30820137       0.05895643 </v>
   <v>       0.24800529       0.70728130       0.06693395 </v>
   <v>       0.25383785       0.29679941       0.31195849 </v>
   <v>       0.49937539       0.69960641       0.31283220 </v>
   <v>       0.49687922       0.29650299       0.06578116 </v>
   <v>       0.74846254       0.69021905       0.06191813 </v>
   <v>       0.74907605       0.29944974       0.30963705 </v>
   <v>      -0.00299512       0.69796332       0.30943465 </v>
   <v>      -0.00202634       0.31375083       0.55904163 </v>
   <v>       0.25281184       0.70580570       0.56375990 </v>
   <v>       0.24753968       0.30112995       0.80857595 </v>
   <v>       0.49566595       0.69440849       0.80849236 </v>
   <v>       0.49932857       0.29895109       0.56148800 </v>
   <v>       0.74684544       0.69208268       0.56215809 </v>
   <v>       0.74668201       0.31482501       0.80871024 </v>
   <v>      -0.00385102       0.68513024       0.81023026 </v>
   <v>       0.24256788       0.31113463       0.05754839 </v>
   <v>      -0.00327532       0.65313732       0.05889336 </v>
   <v>       0.49755185       0.35615504       0.30938439 </v>
   <v>       0.24550050       0.65822571       0.31059430 </v>
   <v>       0.74380720       0.34530720       0.05826966 </v>
   <v>       0.49873956       0.68204372       0.05867377 </v>
   <v>       0.99520372       0.32593994       0.30979056 </v>
   <v>       0.74698152       0.65382610       0.30933591 </v>
   <v>       0.24413550       0.33637282       0.55897503 </v>
   <v>      -0.00517484       0.67053150       0.56031503 </v>
   <v>       0.49711011       0.32585006       0.80996477 </v>
   <v>       0.24516330       0.67335847       0.81104242 </v>
   <v>       0.74632235       0.34931886       0.55872764 </v>
   <v>       0.49689827       0.64462769       0.55958846 </v>
   <v>       0.99453774       0.35313481       0.80842801 </v>
   <v>       0.74468935       0.64252615       0.80946805 </v>
   <v>       0.51131438       0.08265573       0.08949863 </v>
   <v>       0.24028423       0.92046620       0.09460940 </v>
   <v>       0.27853898       0.08331050       0.31572216 </v>
   <v>      -0.00618539       0.91492526       0.29591986 </v>
   <v>       0.98003793       0.08922745       0.04379319 </v>
   <v>       0.75427180       0.91415398       0.05720956 </v>
   <v>       0.75451302       0.07887537       0.31284547 </v>
   <v>       0.50949310       0.91792841       0.32113078 </v>
   <v>       0.51050286       0.08101245       0.56038768 </v>
   <v>       0.27750631       0.91949010       0.57001687 </v>
   <v>       0.23234914       0.08576249       0.79654445 </v>
   <v>      -0.04194485       0.90226294       0.80923435 </v>
   <v>       0.98864215       0.09129396       0.56808644 </v>
   <v>       0.74688000       0.91538260       0.57236544 </v>
   <v>       0.76726426       0.09036689       0.80042427 </v>
   <v>       0.51141275       0.91144174       0.80192737 </v>
  </varray>
 </structure>
</modeling>
