<?xml version="1.0" encoding="ISO-8859-1"?>
<modeling>
 <generator>
  <i name="program" type="string">vasp </i>
  <i name="version" type="string">5.4.4.18Apr17-6-g9f103f2a35  </i>
  <i name="subversion" type="string">(build Jul 31 2017 11:33:29) complex            parallel </i>
  <i name="platform" type="string">LinuxIFC </i>
  <i name="date" type="string">2021 09 29 </i>
  <i name="time" type="string">05:21:42 </i>
 </generator>
 <incar>
  <i type="string" name="SYSTEM"> La2O2S</i>
  <i type="string" name="PREC">normal</i>
  <i type="int" name="NELMIN">     4</i>
  <i type="int" name="IBRION">     2</i>
  <i type="int" name="NFREE">    10</i>
  <i name="EDIFF">      0.00000100</i>
  <i name="EDIFFG">     -0.01000000</i>
  <i type="int" name="NSW">     1</i>
  <i type="int" name="ISIF">     2</i>
  <i name="ENCUT">    600.00000000</i>
  <i name="ENAUG">    900.00000000</i>
  <i type="int" name="ISMEAR">    -5</i>
  <i type="logical" name="LWAVE"> F  </i>
  <i type="logical" name="LCHARG"> F  </i>
  <v type="int" name="KPOINT_BSE">    -1     0     0     0</v>
 </incar>
 <structure name="primitive_cell" >
  <crystal>
   <varray name="basis" >
    <v>      11.17850000       0.00000000       0.00000000 </v>
    <v>       0.00000000       9.57460000       0.00000000 </v>
    <v>       0.00000000       0.00000000      11.18240000 </v>
   </varray>
   <i name="volume">   1196.84853820 </i>
   <varray name="rec_basis" >
    <v>       0.08945744       0.00000000       0.00000000 </v>
    <v>       0.00000000       0.10444301       0.00000000 </v>
    <v>       0.00000000       0.00000000       0.08942624 </v>
   </varray>
  </crystal>
  <varray name="positions" >
   <v>       0.37539000       0.00017000       0.43687000 </v>
   <v>      -0.49987000      -0.07798000       0.31246000 </v>
   <v>       0.25013000       0.07798000       0.31246000 </v>
   <v>       0.49987000       0.07798000      -0.43754000 </v>
   <v>       0.24987000      -0.07798000      -0.43754000 </v>
   <v>      -0.37461000      -0.00016000       0.43687000 </v>
   <v>       0.37461000       0.00017000       0.18687000 </v>
   <v>       0.37461000       0.00017000      -0.31313000 </v>
   <v>       0.49987000      -0.29519000       0.31282000 </v>
   <v>       0.24987000       0.29519000       0.31282000 </v>
   <v>      -0.49987000       0.29519000      -0.43719000 </v>
   <v>       0.25013000      -0.29519000      -0.43719000 </v>
   <v>       0.49995000       0.32677000       0.31286000 </v>
   <v>       0.24995000      -0.32677000       0.31286000 </v>
   <v>      -0.49995000      -0.32677000      -0.43714000 </v>
   <v>       0.25005000       0.32677000      -0.43714000 </v>
   <v>      -0.37539000      -0.00016000       0.18687000 </v>
   <v>      -0.37539000      -0.00016000      -0.31313000 </v>
   <v>       0.12461000      -0.00016000       0.18687000 </v>
   <v>       0.12461000      -0.00016000      -0.31313000 </v>
   <v>       0.49987000       0.07798000       0.06246000 </v>
   <v>      -0.24987000       0.07798000       0.31246000 </v>
   <v>      -0.25013000      -0.07798000      -0.43754000 </v>
   <v>       0.24987000      -0.07798000       0.06246000 </v>
   <v>       0.00013000      -0.07798000       0.31246000 </v>
   <v>      -0.49987000      -0.07798000      -0.18754000 </v>
   <v>      -0.00013000       0.07798000      -0.43754000 </v>
   <v>       0.25013000       0.07798000      -0.18754000 </v>
   <v>      -0.49987000       0.29519000       0.06281000 </v>
   <v>      -0.25013000       0.29519000       0.31282000 </v>
   <v>       0.25013000      -0.29519000       0.06281000 </v>
   <v>      -0.24987000      -0.29519000      -0.43719000 </v>
   <v>      -0.00013000      -0.29519000       0.31282000 </v>
   <v>       0.00013000       0.29519000      -0.43719000 </v>
   <v>       0.49987000      -0.29519000      -0.18718000 </v>
   <v>       0.24987000       0.29519000      -0.18718000 </v>
   <v>      -0.49995000      -0.32677000       0.06286000 </v>
   <v>       0.25005000       0.32677000       0.06286000 </v>
   <v>      -0.25005000      -0.32677000       0.31286000 </v>
   <v>      -0.24995000       0.32677000      -0.43714000 </v>
   <v>      -0.00005000       0.32677000       0.31286000 </v>
   <v>       0.00005000      -0.32677000      -0.43714000 </v>
   <v>       0.49995000       0.32677000      -0.18714000 </v>
   <v>       0.24995000      -0.32677000      -0.18714000 </v>
   <v>      -0.12461000       0.00017000       0.43687000 </v>
   <v>       0.37539000       0.00017000      -0.06313000 </v>
   <v>      -0.25013000      -0.07798000       0.06246000 </v>
   <v>      -0.00013000       0.07798000       0.06246000 </v>
   <v>      -0.24987000       0.07798000      -0.18754000 </v>
   <v>       0.00013000      -0.07798000      -0.18754000 </v>
   <v>      -0.12539000       0.00017000      -0.31313000 </v>
   <v>       0.12539000      -0.00016000      -0.06313000 </v>
   <v>      -0.37461000      -0.00016000      -0.06313000 </v>
   <v>      -0.24987000      -0.29519000       0.06281000 </v>
   <v>       0.00013000       0.29519000       0.06281000 </v>
   <v>      -0.25013000       0.29519000      -0.18718000 </v>
   <v>      -0.00013000      -0.29519000      -0.18718000 </v>
   <v>      -0.24995000       0.32677000       0.06286000 </v>
   <v>       0.00005000      -0.32677000       0.06286000 </v>
   <v>      -0.25005000      -0.32677000      -0.18714000 </v>
   <v>      -0.00005000       0.32677000      -0.18714000 </v>
   <v>      -0.12461000       0.00017000      -0.06313000 </v>
  </varray>
 </structure>
 <varray name="primitive_index" >
  <v type="int" >        1 </v>
  <v type="int" >       54 </v>
  <v type="int" >       49 </v>
  <v type="int" >       55 </v>
  <v type="int" >       56 </v>
  <v type="int" >        4 </v>
  <v type="int" >        3 </v>
  <v type="int" >        9 </v>
  <v type="int" >       18 </v>
  <v type="int" >       17 </v>
  <v type="int" >       27 </v>
  <v type="int" >       24 </v>
  <v type="int" >       33 </v>
  <v type="int" >       34 </v>
  <v type="int" >       44 </v>
  <v type="int" >       39 </v>
  <v type="int" >        5 </v>
  <v type="int" >       11 </v>
  <v type="int" >        2 </v>
  <v type="int" >        8 </v>
  <v type="int" >       47 </v>
  <v type="int" >       53 </v>
  <v type="int" >       60 </v>
  <v type="int" >       48 </v>
  <v type="int" >       50 </v>
  <v type="int" >       62 </v>
  <v type="int" >       59 </v>
  <v type="int" >       57 </v>
  <v type="int" >       19 </v>
  <v type="int" >       21 </v>
  <v type="int" >       16 </v>
  <v type="int" >       28 </v>
  <v type="int" >       22 </v>
  <v type="int" >       23 </v>
  <v type="int" >       26 </v>
  <v type="int" >       25 </v>
  <v type="int" >       36 </v>
  <v type="int" >       31 </v>
  <v type="int" >       38 </v>
  <v type="int" >       43 </v>
  <v type="int" >       37 </v>
  <v type="int" >       40 </v>
  <v type="int" >       41 </v>
  <v type="int" >       42 </v>
  <v type="int" >       13 </v>
  <v type="int" >        7 </v>
  <v type="int" >       52 </v>
  <v type="int" >       51 </v>
  <v type="int" >       61 </v>
  <v type="int" >       58 </v>
  <v type="int" >       12 </v>
  <v type="int" >        6 </v>
  <v type="int" >       10 </v>
  <v type="int" >       20 </v>
  <v type="int" >       15 </v>
  <v type="int" >       29 </v>
  <v type="int" >       30 </v>
  <v type="int" >       35 </v>
  <v type="int" >       32 </v>
  <v type="int" >       46 </v>
  <v type="int" >       45 </v>
  <v type="int" >       14 </v>
 </varray>
 <kpoints>
  <generation param="Gamma">
   <v type="int" name="divisions">       2        2        2 </v>
   <v name="usershift">      0.00000000       0.00000000       0.00000000 </v>
   <v name="genvec1">      0.50000000       0.00000000       0.00000000 </v>
   <v name="genvec2">      0.00000000       0.50000000       0.00000000 </v>
   <v name="genvec3">      0.00000000       0.00000000       0.50000000 </v>
   <v name="shift">      0.00000000       0.00000000       0.00000000 </v>
  </generation>
  <varray name="kpointlist" >
   <v>       0.00000000       0.00000000       0.00000000 </v>
   <v>       0.50000000       0.00000000       0.00000000 </v>
   <v>       0.00000000       0.50000000       0.00000000 </v>
   <v>       0.50000000       0.50000000       0.00000000 </v>
   <v>       0.00000000       0.00000000       0.50000000 </v>
   <v>       0.50000000       0.00000000       0.50000000 </v>
   <v>       0.00000000       0.50000000       0.50000000 </v>
   <v>       0.50000000       0.50000000       0.50000000 </v>
  </varray>
  <varray name="weights" >
   <v>       0.12500000 </v>
   <v>       0.12500000 </v>
   <v>       0.12500000 </v>
   <v>       0.12500000 </v>
   <v>       0.12500000 </v>
   <v>       0.12500000 </v>
   <v>       0.12500000 </v>
   <v>       0.12500000 </v>
  </varray>
  <varray name="tetrahedronlist"  type="int" >
   <v type="int" >        2        1        2        4        5 </v>
   <v type="int" >        2        1        3        4        5 </v>
   <v type="int" >        2        3        4        5        7 </v>
   <v type="int" >        2        2        4        5        6 </v>
   <v type="int" >        2        4        5        6        8 </v>
   <v type="int" >        2        4        5        7        8 </v>
   <v type="int" >        2        1        2        3        6 </v>
   <v type="int" >        2        2        3        4        6 </v>
   <v type="int" >        2        3        4        6        8 </v>
   <v type="int" >        2        1        3        5        6 </v>
   <v type="int" >        2        3        5        6        7 </v>
   <v type="int" >        2        3        6        7        8 </v>
   <v type="int" >        2        2        3        4        7 </v>
   <v type="int" >        2        1        2        3        7 </v>
   <v type="int" >        2        1        2        5        7 </v>
   <v type="int" >        2        2        4        7        8 </v>
   <v type="int" >        2        2        6        7        8 </v>
   <v type="int" >        2        2        5        6        7 </v>
   <v type="int" >        2        1        3        4        8 </v>
   <v type="int" >        2        1        2        4        8 </v>
   <v type="int" >        2        1        2        6        8 </v>
   <v type="int" >        2        1        3        7        8 </v>
   <v type="int" >        2        1        5        7        8 </v>
   <v type="int" >        2        1        5        6        8 </v>
  </varray>
  <i name="volumeweight">      0.02083333 </i>
 </kpoints>
 <parameters>
  <separator name="general" >
   <i type="string" name="SYSTEM">La2O2S</i>
   <i type="logical" name="LCOMPAT"> F  </i>
  </separator>
  <separator name="electronic" >
   <i type="string" name="PREC">normal</i>
   <i name="ENMAX">    600.00000000</i>
   <i name="ENAUG">    900.00000000</i>
   <i name="EDIFF">      0.00000100</i>
   <i type="int" name="IALGO">    38</i>
   <i type="int" name="IWAVPR">    11</i>
   <i type="int" name="NBANDS">   308</i>
   <i name="NELECT">    472.00000000</i>
   <i type="int" name="TURBO">     0</i>
   <i type="int" name="IRESTART">     0</i>
   <i type="int" name="NREBOOT">     0</i>
   <i type="int" name="NMIN">     0</i>
   <i name="EREF">      0.00000000</i>
   <separator name="electronic smearing" >
    <i type="int" name="ISMEAR">    -5</i>
    <i name="SIGMA">      0.20000000</i>
    <i name="KSPACING">      0.50000000</i>
    <i type="logical" name="KGAMMA"> T  </i>
   </separator>
   <separator name="electronic projectors" >
    <i type="logical" name="LREAL"> F  </i>
    <v name="ROPT">      0.00000000      0.00000000      0.00000000      0.00000000      0.00000000</v>
    <i type="int" name="LMAXPAW">  -100</i>
    <i type="int" name="LMAXMIX">     2</i>
    <i type="logical" name="NLSPLINE"> F  </i>
   </separator>
   <separator name="electronic startup" >
    <i type="int" name="ISTART">     0</i>
    <i type="int" name="ICHARG">     2</i>
    <i type="int" name="INIWAV">     1</i>
   </separator>
   <separator name="electronic spin" >
    <i type="int" name="ISPIN">     1</i>
    <i type="logical" name="LNONCOLLINEAR"> F  </i>
    <v name="MAGMOM">      1.00000000      1.00000000      1.00000000      1.00000000      1.00000000      1.00000000      1.00000000      1.00000000      1.00000000      1.00000000      1.00000000      1.00000000      1.00000000      1.00000000      1.00000000      1.00000000      1.00000000      1.00000000      1.00000000      1.00000000
      1.00000000      1.00000000      1.00000000      1.00000000      1.00000000      1.00000000      1.00000000      1.00000000      1.00000000      1.00000000      1.00000000      1.00000000      1.00000000      1.00000000      1.00000000      1.00000000      1.00000000      1.00000000      1.00000000      1.00000000
      1.00000000      1.00000000      1.00000000      1.00000000      1.00000000      1.00000000      1.00000000      1.00000000      1.00000000      1.00000000      1.00000000      1.00000000      1.00000000      1.00000000      1.00000000      1.00000000      1.00000000      1.00000000      1.00000000      1.00000000
      1.00000000      1.00000000</v>
    <i name="NUPDOWN">     -1.00000000</i>
    <i type="logical" name="LSORBIT"> F  </i>
    <v name="SAXIS">      0.00000000      0.00000000      1.00000000</v>
    <i type="logical" name="LSPIRAL"> F  </i>
    <v name="QSPIRAL">      0.00000000      0.00000000      0.00000000</v>
    <i type="logical" name="LZEROZ"> F  </i>
   </separator>
   <separator name="electronic exchange-correlation" >
    <i type="logical" name="LASPH"> F  </i>
    <i type="logical" name="LMETAGGA"> F  </i>
   </separator>
   <separator name="electronic convergence" >
    <i type="int" name="NELM">    60</i>
    <i type="int" name="NELMDL">    -5</i>
    <i type="int" name="NELMIN">     4</i>
    <i name="ENINI">    600.00000000</i>
    <separator name="electronic convergence detail" >
     <i type="logical" name="LDIAG"> T  </i>
     <i type="logical" name="LSUBROT"> F  </i>
     <i name="WEIMIN">      0.00100000</i>
     <i name="EBREAK">      0.00000000</i>
     <i name="DEPER">      0.30000000</i>
     <i type="int" name="NRMM">     4</i>
     <i name="TIME">      0.40000000</i>
    </separator>
   </separator>
   <separator name="electronic mixer" >
    <i name="AMIX">      0.40000000</i>
    <i name="BMIX">      1.00000000</i>
    <i name="AMIN">      0.10000000</i>
    <i name="AMIX_MAG">      1.60000000</i>
    <i name="BMIX_MAG">      1.00000000</i>
    <separator name="electronic mixer details" >
     <i type="int" name="IMIX">     4</i>
     <i type="logical" name="MIXFIRST"> F  </i>
     <i type="int" name="MAXMIX">   -45</i>
     <i name="WC">    100.00000000</i>
     <i type="int" name="INIMIX">     1</i>
     <i type="int" name="MIXPRE">     1</i>
     <i type="int" name="MREMOVE">     5</i>
    </separator>
   </separator>
   <separator name="electronic dipolcorrection" >
    <i type="logical" name="LDIPOL"> F  </i>
    <i type="logical" name="LMONO"> F  </i>
    <i type="int" name="IDIPOL">     0</i>
    <i name="EPSILON">      1.00000000</i>
    <v name="DIPOL">   -100.00000000   -100.00000000   -100.00000000</v>
    <i name="EFIELD">      0.00000000</i>
   </separator>
  </separator>
  <separator name="grids" >
   <i type="int" name="NGX">    70</i>
   <i type="int" name="NGY">    60</i>
   <i type="int" name="NGZ">    70</i>
   <i type="int" name="NGXF">   140</i>
   <i type="int" name="NGYF">   120</i>
   <i type="int" name="NGZF">   140</i>
   <i type="logical" name="ADDGRID"> F  </i>
  </separator>
  <separator name="ionic" >
   <i type="int" name="NSW">     1</i>
   <i type="int" name="IBRION">     2</i>
   <i type="int" name="MDALGO">     0</i>
   <i type="int" name="ISIF">     2</i>
   <i name="PSTRESS">      0.00000000</i>
   <i name="EDIFFG">     -0.01000000</i>
   <i type="int" name="NFREE">    10</i>
   <i name="POTIM">      0.50000000</i>
   <i name="SMASS">     -3.00000000</i>
   <i name="SCALEE">      1.00000000</i>
  </separator>
  <separator name="ionic md" >
   <i name="TEBEG">      0.00010000</i>
   <i name="TEEND">      0.00010000</i>
   <i type="int" name="NBLOCK">     1</i>
   <i type="int" name="KBLOCK">     1</i>
   <i type="int" name="NPACO">   256</i>
   <i name="APACO">     16.00000000</i>
  </separator>
  <separator name="symmetry" >
   <i type="int" name="ISYM">     2</i>
   <i name="SYMPREC">      0.00001000</i>
  </separator>
  <separator name="dos" >
   <i type="int" name="LORBIT">     0</i>
   <v name="RWIGS">     -1.00000000     -1.00000000     -1.00000000     -1.00000000     -1.00000000</v>
   <i type="int" name="NEDOS">   301</i>
   <i name="EMIN">     10.00000000</i>
   <i name="EMAX">    -10.00000000</i>
   <i name="EFERMI">      0.00000000</i>
  </separator>
  <separator name="writing" >
   <i type="int" name="NWRITE">     2</i>
   <i type="logical" name="LWAVE"> F  </i>
   <i type="logical" name="LDOWNSAMPLE"> F  </i>
   <i type="logical" name="LCHARG"> F  </i>
   <i type="logical" name="LPARD"> F  </i>
   <i type="logical" name="LVTOT"> F  </i>
   <i type="logical" name="LVHAR"> F  </i>
   <i type="logical" name="LELF"> F  </i>
   <i type="logical" name="LOPTICS"> F  </i>
   <v name="STM">      0.00000000      0.00000000      0.00000000      0.00000000      0.00000000      0.00000000      0.00000000</v>
  </separator>
  <separator name="performance" >
   <i type="int" name="NPAR">    28</i>
   <i type="int" name="NSIM">     4</i>
   <i type="int" name="NBLK">    -1</i>
   <i type="logical" name="LPLANE"> T  </i>
   <i type="logical" name="LSCALAPACK"> T  </i>
   <i type="logical" name="LSCAAWARE"> F  </i>
   <i type="logical" name="LSCALU"> F  </i>
   <i type="logical" name="LASYNC"> F  </i>
   <i type="logical" name="LORBITALREAL"> F  </i>
  </separator>
  <separator name="miscellaneous" >
   <i type="int" name="IDIOT">     3</i>
   <i type="int" name="ISPECIAL">     0</i>
   <i type="logical" name="LMUSIC"> F  </i>
   <v name="POMASS">      7.01000000     24.30500000    208.98000000     32.06600000     16.00000000</v>
   <v name="DARWINR">      0.00000000      0.00000000      0.00000000      0.00000000      0.00000000</v>
   <v name="DARWINV">      1.00000000      1.00000000      1.00000000      1.00000000      1.00000000</v>
   <i type="logical" name="LCORR"> T  </i>
  </separator>
  <i type="logical" name="GGA_COMPAT"> T  </i>
  <i type="logical" name="LBERRY"> F  </i>
  <i type="int" name="ICORELEVEL">     0</i>
  <i type="logical" name="LDAU"> F  </i>
  <i type="int" name="I_CONSTRAINED_M">     0</i>
  <separator name="electronic exchange-correlation" >
   <i type="string" name="GGA">--</i>
   <i type="int" name="VOSKOWN">     0</i>
   <i type="logical" name="LHFCALC"> F  </i>
   <i type="string" name="PRECFOCK"></i>
   <i type="logical" name="LSYMGRAD"> F  </i>
   <i type="logical" name="LHFONE"> F  </i>
   <i type="logical" name="LRHFCALC"> F  </i>
   <i type="logical" name="LTHOMAS"> F  </i>
   <i type="logical" name="LMODELHF"> F  </i>
   <i name="ENCUT4O">     -1.00000000</i>
   <i type="int" name="EXXOEP">     0</i>
   <i type="int" name="FOURORBIT">     0</i>
   <i name="AEXX">      0.00000000</i>
   <i name="HFALPHA">      0.00000000</i>
   <i name="MCALPHA">      0.00000000</i>
   <i name="ALDAX">      1.00000000</i>
   <i name="AGGAX">      1.00000000</i>
   <i name="ALDAC">      1.00000000</i>
   <i name="AGGAC">      1.00000000</i>
   <i type="int" name="NKREDX">     1</i>
   <i type="int" name="NKREDY">     1</i>
   <i type="int" name="NKREDZ">     1</i>
   <i type="logical" name="SHIFTRED"> F  </i>
   <i type="logical" name="ODDONLY"> F  </i>
   <i type="logical" name="EVENONLY"> F  </i>
   <i type="int" name="LMAXFOCK">     0</i>
   <i type="int" name="NMAXFOCKAE">     0</i>
   <i type="logical" name="LFOCKAEDFT"> F  </i>
   <i name="HFSCREEN">      0.00000000</i>
   <i name="HFSCREENC">      0.00000000</i>
   <i type="int" name="NBANDSGWLOW">     0</i>
  </separator>
  <separator name="vdW DFT" >
   <i type="logical" name="LUSE_VDW"> F  </i>
   <i name="Zab_VDW">     -0.84910000</i>
   <i name="PARAM1">      0.12340000</i>
   <i name="PARAM2">      1.00000000</i>
   <i name="PARAM3">      0.00000000</i>
  </separator>
  <separator name="model GW" >
   <i type="int" name="MODEL_GW">     0</i>
   <i name="MODEL_EPS0">     11.58240521</i>
   <i name="MODEL_ALPHA">      1.00000000</i>
  </separator>
  <separator name="linear response parameters" >
   <i type="logical" name="LEPSILON"> F  </i>
   <i type="logical" name="LRPA"> F  </i>
   <i type="logical" name="LNABLA"> F  </i>
   <i type="logical" name="LVEL"> F  </i>
   <i type="int" name="KINTER">     0</i>
   <i name="CSHIFT">      0.10000000</i>
   <i name="OMEGAMAX">     -1.00000000</i>
   <i name="DEG_THRESHOLD">      0.00200000</i>
   <i name="RTIME">     -0.10000000</i>
   <i name="WPLASMAI">      0.00000000</i>
   <v name="DFIELD">      0.00000000      0.00000000      0.00000000</v>
   <v name="WPLASMA">      0.00000000      0.00000000      0.00000000      0.00000000      0.00000000      0.00000000      0.00000000      0.00000000      0.00000000</v>
  </separator>
  <separator name="orbital magnetization" >
   <i type="logical" name="NUCIND"> F  </i>
   <v name="MAGPOS">      0.00000000      0.00000000      0.00000000</v>
   <i type="logical" name="LNICSALL"> T  </i>
   <i type="logical" name="ORBITALMAG"> F  </i>
   <i type="logical" name="LMAGBLOCH"> F  </i>
   <i type="logical" name="LCHIMAG"> F  </i>
   <i type="logical" name="LGAUGE"> T  </i>
   <i type="int" name="MAGATOM">     0</i>
   <v name="MAGDIPOL">      0.00000000      0.00000000      0.00000000</v>
   <v name="AVECCONST">      0.00000000      0.00000000      0.00000000</v>
  </separator>
  <separator name="response functions" >
   <i type="logical" name="LADDER"> F  </i>
   <i type="logical" name="LRPAFORCE"> F  </i>
   <i type="logical" name="LFXC"> F  </i>
   <i type="logical" name="LHARTREE"> T  </i>
   <i type="int" name="IBSE">     0</i>
   <v type="int" name="KPOINT">    -1     0     0     0</v>
   <i type="logical" name="LTCTE"> F  </i>
   <i type="logical" name="LTETE"> F  </i>
   <i type="logical" name="LTRIPLET"> F  </i>
   <i type="logical" name="LFXCEPS"> F  </i>
   <i type="logical" name="LFXHEG"> F  </i>
   <i type="int" name="NATURALO">     2</i>
   <i type="logical" name="L2ORDER"> F  </i>
   <i type="logical" name="LMP2LT"> F  </i>
   <i type="logical" name="LUSEW"> F  </i>
   <i name="ENCUTGW">     -2.00000000</i>
   <i name="ENCUTGWSOFT">     -2.00000000</i>
   <i name="ENCUTLF">     -1.00000000</i>
   <i type="int" name="LMAXMP2">    -1</i>
   <i name="SCISSOR">      0.00000000</i>
   <i type="int" name="NOMEGA">     0</i>
   <i type="int" name="NOMEGAR">     0</i>
   <i type="int" name="NBANDSGW">    -1</i>
   <i type="int" name="NBANDSO">    -1</i>
   <i type="int" name="NBANDSV">    -1</i>
   <i type="int" name="NELM">     1</i>
   <i type="int" name="NELMHF">     1</i>
   <i type="int" name="DIM">     3</i>
   <i type="int" name="ANTIRES">     0</i>
   <i name="OMEGAMAX">    -30.00000000</i>
   <i name="OMEGAMIN">    -30.00000000</i>
   <i name="OMEGATL">   -200.00000000</i>
   <i type="int" name="OMEGAGRID">   140</i>
   <i name="CSHIFT">     -0.10000000</i>
   <i type="logical" name="SELFENERGY"> F  </i>
   <i type="logical" name="LSPECTRAL"> F  </i>
   <i type="logical" name="LSPECTRALGW"> F  </i>
   <i type="logical" name="LSINGLES"> F  </i>
   <i type="logical" name="LFERMIGW"> F  </i>
   <i type="logical" name="ODDONLYGW"> F  </i>
   <i type="logical" name="EVENONLYGW"> F  </i>
   <i type="int" name="NKREDLFX">     1</i>
   <i type="int" name="NKREDLFY">     1</i>
   <i type="int" name="NKREDLFZ">     1</i>
   <i type="int" name="MAXMEM">  2800</i>
   <i type="int" name="TELESCOPE">     0</i>
   <i type="int" name="TAUPAR">     1</i>
   <i type="int" name="OMEGAPAR">    -1</i>
   <i name="LAMBDA">      1.00000000</i>
  </separator>
  <separator name="External order field" >
   <i name="OFIELD_KAPPA">      0.00000000</i>
   <v name="OFIELD_K">      0.00000000      0.00000000      0.00000000</v>
   <i name="OFIELD_Q6_NEAR">      0.00000000</i>
   <i name="OFIELD_Q6_FAR">      0.00000000</i>
   <i name="OFIELD_A">      0.00000000</i>
  </separator>
 </parameters>
 <atominfo>
  <atoms>      62 </atoms>
  <types>       5 </types>
  <array name="atoms" >
   <dimension dim="1">ion</dimension>
   <field type="string">element</field>
   <field type="int">atomtype</field>
   <set>
    <rc><c>Li</c><c>   1</c></rc>
    <rc><c>Li</c><c>   1</c></rc>
    <rc><c>Li</c><c>   1</c></rc>
    <rc><c>Li</c><c>   1</c></rc>
    <rc><c>Li</c><c>   1</c></rc>
    <rc><c>Li</c><c>   1</c></rc>
    <rc><c>Li</c><c>   1</c></rc>
    <rc><c>Li</c><c>   1</c></rc>
    <rc><c>Li</c><c>   1</c></rc>
    <rc><c>Li</c><c>   1</c></rc>
    <rc><c>Li</c><c>   1</c></rc>
    <rc><c>Li</c><c>   1</c></rc>
    <rc><c>Mg</c><c>   2</c></rc>
    <rc><c>Mg</c><c>   2</c></rc>
    <rc><c>Bi</c><c>   3</c></rc>
    <rc><c>Bi</c><c>   3</c></rc>
    <rc><c>Bi</c><c>   3</c></rc>
    <rc><c>Bi</c><c>   3</c></rc>
    <rc><c>Bi</c><c>   3</c></rc>
    <rc><c>Bi</c><c>   3</c></rc>
    <rc><c>Bi</c><c>   3</c></rc>
    <rc><c>Bi</c><c>   3</c></rc>
    <rc><c>Bi</c><c>   3</c></rc>
    <rc><c>Bi</c><c>   3</c></rc>
    <rc><c>Bi</c><c>   3</c></rc>
    <rc><c>Bi</c><c>   3</c></rc>
    <rc><c>Bi</c><c>   3</c></rc>
    <rc><c>Bi</c><c>   3</c></rc>
    <rc><c>Bi</c><c>   3</c></rc>
    <rc><c>Bi</c><c>   3</c></rc>
    <rc><c>S </c><c>   4</c></rc>
    <rc><c>S </c><c>   4</c></rc>
    <rc><c>S </c><c>   4</c></rc>
    <rc><c>S </c><c>   4</c></rc>
    <rc><c>S </c><c>   4</c></rc>
    <rc><c>S </c><c>   4</c></rc>
    <rc><c>S </c><c>   4</c></rc>
    <rc><c>S </c><c>   4</c></rc>
    <rc><c>S </c><c>   4</c></rc>
    <rc><c>S </c><c>   4</c></rc>
    <rc><c>S </c><c>   4</c></rc>
    <rc><c>S </c><c>   4</c></rc>
    <rc><c>S </c><c>   4</c></rc>
    <rc><c>S </c><c>   4</c></rc>
    <rc><c>S </c><c>   4</c></rc>
    <rc><c>S </c><c>   4</c></rc>
    <rc><c>O </c><c>   5</c></rc>
    <rc><c>O </c><c>   5</c></rc>
    <rc><c>O </c><c>   5</c></rc>
    <rc><c>O </c><c>   5</c></rc>
    <rc><c>O </c><c>   5</c></rc>
    <rc><c>O </c><c>   5</c></rc>
    <rc><c>O </c><c>   5</c></rc>
    <rc><c>O </c><c>   5</c></rc>
    <rc><c>O </c><c>   5</c></rc>
    <rc><c>O </c><c>   5</c></rc>
    <rc><c>O </c><c>   5</c></rc>
    <rc><c>O </c><c>   5</c></rc>
    <rc><c>O </c><c>   5</c></rc>
    <rc><c>O </c><c>   5</c></rc>
    <rc><c>O </c><c>   5</c></rc>
    <rc><c>O </c><c>   5</c></rc>
   </set>
  </array>
  <array name="atomtypes" >
   <dimension dim="1">type</dimension>
   <field type="int">atomspertype</field>
   <field type="string">element</field>
   <field>mass</field>
   <field>valence</field>
   <field type="string">pseudopotential</field>
   <set>
    <rc><c>  12</c><c>Li</c><c>      7.01000000</c><c>      3.00000000</c><c>  PAW_PBE Li_sv 10Sep2004               </c></rc>
    <rc><c>   2</c><c>Mg</c><c>     24.30500000</c><c>      2.00000000</c><c>  PAW_PBE Mg 13Apr2007                  </c></rc>
    <rc><c>  16</c><c>Bi</c><c>    208.98000000</c><c>     15.00000000</c><c>  PAW_PBE Bi_d 06Sep2000                </c></rc>
    <rc><c>  16</c><c>S </c><c>     32.06600000</c><c>      6.00000000</c><c>  PAW_PBE S 06Sep2000                   </c></rc>
    <rc><c>  16</c><c>O </c><c>     16.00000000</c><c>      6.00000000</c><c>  PAW_PBE O 08Apr2002                   </c></rc>
   </set>
  </array>
 </atominfo>
 <structure name="initialpos" >
  <crystal>
   <varray name="basis" >
    <v>      11.17850000       0.00000000       0.00000000 </v>
    <v>       0.00000000       9.57460000       0.00000000 </v>
    <v>       0.00000000       0.00000000      11.18240000 </v>
   </varray>
   <i name="volume">   1196.84853820 </i>
   <varray name="rec_basis" >
    <v>       0.08945744       0.00000000       0.00000000 </v>
    <v>       0.00000000       0.10444301       0.00000000 </v>
    <v>       0.00000000       0.00000000       0.08942624 </v>
   </varray>
  </crystal>
  <varray name="positions" >
   <v>       0.37539000       0.00017000       0.43687000 </v>
   <v>       0.12461000       0.99984000       0.18687000 </v>
   <v>       0.37461000       0.00017000       0.18687000 </v>
   <v>       0.62539000       0.99984000       0.43687000 </v>
   <v>       0.62461000       0.99984000       0.18687000 </v>
   <v>       0.12539000       0.99984000       0.93687000 </v>
   <v>       0.37539000       0.00017000       0.93687000 </v>
   <v>       0.12461000       0.99984000       0.68687000 </v>
   <v>       0.37461000       0.00017000       0.68687000 </v>
   <v>       0.62539000       0.99984000       0.93687000 </v>
   <v>       0.62461000       0.99984000       0.68687000 </v>
   <v>       0.87461000       0.00017000       0.68687000 </v>
   <v>       0.87539000       0.00017000       0.43687000 </v>
   <v>       0.87539000       0.00017000       0.93687000 </v>
   <v>       0.00013000       0.29519000       0.06281000 </v>
   <v>       0.25013000       0.70481000       0.06281000 </v>
   <v>       0.24987000       0.29519000       0.31282000 </v>
   <v>       0.49987000       0.70481000       0.31282000 </v>
   <v>       0.50013000       0.29519000       0.06281000 </v>
   <v>       0.75013000       0.70481000       0.06281000 </v>
   <v>       0.74987000       0.29519000       0.31282000 </v>
   <v>       0.99987000       0.70481000       0.31282000 </v>
   <v>       0.00013000       0.29519000       0.56281000 </v>
   <v>       0.25013000       0.70481000       0.56281000 </v>
   <v>       0.24987000       0.29519000       0.81282000 </v>
   <v>       0.49987000       0.70481000       0.81282000 </v>
   <v>       0.50013000       0.29519000       0.56281000 </v>
   <v>       0.75013000       0.70481000       0.56281000 </v>
   <v>       0.74987000       0.29519000       0.81282000 </v>
   <v>       0.99987000       0.70481000       0.81282000 </v>
   <v>       0.25005000       0.32677000       0.06286000 </v>
   <v>       0.00005000       0.67323000       0.06286000 </v>
   <v>       0.49995000       0.32677000       0.31286000 </v>
   <v>       0.24995000       0.67323000       0.31286000 </v>
   <v>       0.75005000       0.32677000       0.06286000 </v>
   <v>       0.50005000       0.67323000       0.06286000 </v>
   <v>       0.99995000       0.32677000       0.31286000 </v>
   <v>       0.74995000       0.67323000       0.31286000 </v>
   <v>       0.25005000       0.32677000       0.56286000 </v>
   <v>       0.00005000       0.67323000       0.56286000 </v>
   <v>       0.49995000       0.32677000       0.81286000 </v>
   <v>       0.24995000       0.67323000       0.81286000 </v>
   <v>       0.75005000       0.32677000       0.56286000 </v>
   <v>       0.50005000       0.67323000       0.56286000 </v>
   <v>       0.99995000       0.32677000       0.81286000 </v>
   <v>       0.74995000       0.67323000       0.81286000 </v>
   <v>       0.49987000       0.07798000       0.06246000 </v>
   <v>       0.24987000       0.92202000       0.06246000 </v>
   <v>       0.25013000       0.07798000       0.31246000 </v>
   <v>       0.00013000       0.92202000       0.31246000 </v>
   <v>       0.99987000       0.07798000       0.06246000 </v>
   <v>       0.74987000       0.92202000       0.06246000 </v>
   <v>       0.75013000       0.07798000       0.31246000 </v>
   <v>       0.50013000       0.92202000       0.31246000 </v>
   <v>       0.49987000       0.07798000       0.56246000 </v>
   <v>       0.24987000       0.92202000       0.56246000 </v>
   <v>       0.25013000       0.07798000       0.81246000 </v>
   <v>       0.00013000       0.92202000       0.81246000 </v>
   <v>       0.99987000       0.07798000       0.56246000 </v>
   <v>       0.74987000       0.92202000       0.56246000 </v>
   <v>       0.75013000       0.07798000       0.81246000 </v>
   <v>       0.50013000       0.92202000       0.81246000 </v>
  </varray>
 </structure>
 <calculation>
  <scstep>
   <time name="dav">   65.75   65.88</time>
   <time name="total">   65.83   65.97</time>
   <energy>
    <i name="alphaZ">   1079.87189334 </i>
    <i name="ewald"> -31100.50614916 </i>
    <i name="hartreedc"> -12724.17508632 </i>
    <i name="XCdc">   1468.88839913 </i>
    <i name="pawpsdc">  36917.91861236 </i>
    <i name="pawaedc"> -36503.41947684 </i>
    <i name="eentropy">      0.00000000 </i>
    <i name="bandstr">   1587.27605241 </i>
    <i name="atom">  45173.57650906 </i>
    <i name="e_fr_energy">   5899.43075399 </i>
    <i name="e_wo_entrp">   5899.43075399 </i>
    <i name="e_0_energy">   5899.43075399 </i>
   </energy>
  </scstep>
  <scstep>
   <time name="dav">   66.56   66.71</time>
   <time name="total">   66.57   66.72</time>
   <energy>
    <i name="e_fr_energy">    742.75662598 </i>
    <i name="e_wo_entrp">    742.75662598 </i>
    <i name="e_0_energy">    742.75662598 </i>
   </energy>
  </scstep>
  <scstep>
   <time name="dav">   72.37   72.73</time>
   <time name="total">   72.38   72.73</time>
   <energy>
    <i name="e_fr_energy">   -245.87655028 </i>
    <i name="e_wo_entrp">   -245.87655028 </i>
    <i name="e_0_energy">   -245.87655028 </i>
   </energy>
  </scstep>
  <scstep>
   <time name="dav">   80.10   80.80</time>
   <time name="total">   80.10   80.80</time>
   <energy>
    <i name="e_fr_energy">   -352.52736998 </i>
    <i name="e_wo_entrp">   -352.52736998 </i>
    <i name="e_0_energy">   -352.52736998 </i>
   </energy>
  </scstep>
  <scstep>
   <time name="dav">  105.23  105.89</time>
   <time name="total">  105.97  106.63</time>
   <energy>
    <i name="e_fr_energy">   -361.17821088 </i>
    <i name="e_wo_entrp">   -361.17821088 </i>
    <i name="e_0_energy">   -361.17821088 </i>
   </energy>
  </scstep>
  <scstep>
   <time name="dav">   93.14   93.36</time>
   <time name="total">   93.95   94.17</time>
   <energy>
    <i name="e_fr_energy">   -301.33859563 </i>
    <i name="e_wo_entrp">   -301.33859563 </i>
    <i name="e_0_energy">   -301.33859563 </i>
   </energy>
  </scstep>
  <scstep>
   <time name="dav">   71.86   72.35</time>
   <time name="total">   72.61   73.18</time>
   <energy>
    <i name="e_fr_energy">   -303.52027467 </i>
    <i name="e_wo_entrp">   -303.52027467 </i>
    <i name="e_0_energy">   -303.52027467 </i>
   </energy>
  </scstep>
  <scstep>
   <time name="dav">   86.86   86.99</time>
   <time name="total">   87.67   87.81</time>
   <energy>
    <i name="e_fr_energy">   -302.13662644 </i>
    <i name="e_wo_entrp">   -302.13662644 </i>
    <i name="e_0_energy">   -302.13662644 </i>
   </energy>
  </scstep>
  <scstep>
   <time name="dav">   88.11   88.24</time>
   <time name="total">   88.93   89.07</time>
   <energy>
    <i name="e_fr_energy">   -301.49759622 </i>
    <i name="e_wo_entrp">   -301.49759622 </i>
    <i name="e_0_energy">   -301.49759622 </i>
   </energy>
  </scstep>
  <scstep>
   <time name="dav">   77.91   78.10</time>
   <time name="total">   78.71   78.90</time>
   <energy>
    <i name="e_fr_energy">   -301.49486368 </i>
    <i name="e_wo_entrp">   -301.49486368 </i>
    <i name="e_0_energy">   -301.49486368 </i>
   </energy>
  </scstep>
  <scstep>
   <time name="dav">   87.28   87.40</time>
   <time name="total">   88.08   88.21</time>
   <energy>
    <i name="e_fr_energy">   -301.50528514 </i>
    <i name="e_wo_entrp">   -301.50528514 </i>
    <i name="e_0_energy">   -301.50528514 </i>
   </energy>
  </scstep>
  <scstep>
   <time name="dav">   84.22   84.85</time>
   <time name="total">   85.02   85.66</time>
   <energy>
    <i name="e_fr_energy">   -301.50995783 </i>
    <i name="e_wo_entrp">   -301.50995783 </i>
    <i name="e_0_energy">   -301.50995783 </i>
   </energy>
  </scstep>
  <scstep>
   <time name="dav">   82.27   82.90</time>
   <time name="total">   83.08   83.71</time>
   <energy>
    <i name="e_fr_energy">   -301.51086131 </i>
    <i name="e_wo_entrp">   -301.51086131 </i>
    <i name="e_0_energy">   -301.51086131 </i>
   </energy>
  </scstep>
  <scstep>
   <time name="dav">   78.64   78.76</time>
   <time name="total">   79.45   79.57</time>
   <energy>
    <i name="e_fr_energy">   -301.51110342 </i>
    <i name="e_wo_entrp">   -301.51110342 </i>
    <i name="e_0_energy">   -301.51110342 </i>
   </energy>
  </scstep>
  <scstep>
   <time name="dav">   89.35   89.47</time>
   <time name="total">   90.15   90.27</time>
   <energy>
    <i name="e_fr_energy">   -301.51112020 </i>
    <i name="e_wo_entrp">   -301.51112020 </i>
    <i name="e_0_energy">   -301.51112020 </i>
   </energy>
  </scstep>
  <scstep>
   <time name="dav">   74.90   75.04</time>
   <time name="total">   75.70   75.84</time>
   <energy>
    <i name="e_fr_energy">   -301.51113967 </i>
    <i name="e_wo_entrp">   -301.51113967 </i>
    <i name="e_0_energy">   -301.51113967 </i>
   </energy>
  </scstep>
  <scstep>
   <time name="dav">   78.10   78.20</time>
   <time name="total">   78.90   79.00</time>
   <energy>
    <i name="e_fr_energy">   -301.51114102 </i>
    <i name="e_wo_entrp">   -301.51114102 </i>
    <i name="e_0_energy">   -301.51114102 </i>
   </energy>
  </scstep>
  <scstep>
   <time name="dav">   56.93   57.01</time>
   <time name="total">   57.01   57.09</time>
   <energy>
    <i name="alphaZ">   1079.87189334 </i>
    <i name="ewald"> -31100.50614916 </i>
    <i name="hartreedc"> -12960.20109316 </i>
    <i name="XCdc">   1491.84292882 </i>
    <i name="pawpsdc">  43948.86181018 </i>
    <i name="pawaedc"> -43509.90716844 </i>
    <i name="eentropy">      0.00000000 </i>
    <i name="bandstr">  -4425.04987223 </i>
    <i name="atom">  45173.57650906 </i>
    <i name="e_fr_energy">   -301.51114158 </i>
    <i name="e_wo_entrp">   -301.51114158 </i>
    <i name="e_0_energy">   -301.51114158 </i>
   </energy>
  </scstep>
  <structure>
   <crystal>
    <varray name="basis" >
     <v>      11.17850000       0.00000000       0.00000000 </v>
     <v>       0.00000000       9.57460000       0.00000000 </v>
     <v>       0.00000000       0.00000000      11.18240000 </v>
    </varray>
    <i name="volume">   1196.84853820 </i>
    <varray name="rec_basis" >
     <v>       0.08945744       0.00000000       0.00000000 </v>
     <v>       0.00000000       0.10444301       0.00000000 </v>
     <v>       0.00000000       0.00000000       0.08942624 </v>
    </varray>
   </crystal>
   <varray name="positions" >
    <v>       0.37539000       0.00017000       0.43687000 </v>
    <v>       0.12461000       0.99984000       0.18687000 </v>
    <v>       0.37461000       0.00017000       0.18687000 </v>
    <v>       0.62539000       0.99984000       0.43687000 </v>
    <v>       0.62461000       0.99984000       0.18687000 </v>
    <v>       0.12539000       0.99984000       0.93687000 </v>
    <v>       0.37539000       0.00017000       0.93687000 </v>
    <v>       0.12461000       0.99984000       0.68687000 </v>
    <v>       0.37461000       0.00017000       0.68687000 </v>
    <v>       0.62539000       0.99984000       0.93687000 </v>
    <v>       0.62461000       0.99984000       0.68687000 </v>
    <v>       0.87461000       0.00017000       0.68687000 </v>
    <v>       0.87539000       0.00017000       0.43687000 </v>
    <v>       0.87539000       0.00017000       0.93687000 </v>
    <v>       0.00013000       0.29519000       0.06281000 </v>
    <v>       0.25013000       0.70481000       0.06281000 </v>
    <v>       0.24987000       0.29519000       0.31282000 </v>
    <v>       0.49987000       0.70481000       0.31282000 </v>
    <v>       0.50013000       0.29519000       0.06281000 </v>
    <v>       0.75013000       0.70481000       0.06281000 </v>
    <v>       0.74987000       0.29519000       0.31282000 </v>
    <v>       0.99987000       0.70481000       0.31282000 </v>
    <v>       0.00013000       0.29519000       0.56281000 </v>
    <v>       0.25013000       0.70481000       0.56281000 </v>
    <v>       0.24987000       0.29519000       0.81282000 </v>
    <v>       0.49987000       0.70481000       0.81282000 </v>
    <v>       0.50013000       0.29519000       0.56281000 </v>
    <v>       0.75013000       0.70481000       0.56281000 </v>
    <v>       0.74987000       0.29519000       0.81282000 </v>
    <v>       0.99987000       0.70481000       0.81282000 </v>
    <v>       0.25005000       0.32677000       0.06286000 </v>
    <v>       0.00005000       0.67323000       0.06286000 </v>
    <v>       0.49995000       0.32677000       0.31286000 </v>
    <v>       0.24995000       0.67323000       0.31286000 </v>
    <v>       0.75005000       0.32677000       0.06286000 </v>
    <v>       0.50005000       0.67323000       0.06286000 </v>
    <v>       0.99995000       0.32677000       0.31286000 </v>
    <v>       0.74995000       0.67323000       0.31286000 </v>
    <v>       0.25005000       0.32677000       0.56286000 </v>
    <v>       0.00005000       0.67323000       0.56286000 </v>
    <v>       0.49995000       0.32677000       0.81286000 </v>
    <v>       0.24995000       0.67323000       0.81286000 </v>
    <v>       0.75005000       0.32677000       0.56286000 </v>
    <v>       0.50005000       0.67323000       0.56286000 </v>
    <v>       0.99995000       0.32677000       0.81286000 </v>
    <v>       0.74995000       0.67323000       0.81286000 </v>
    <v>       0.49987000       0.07798000       0.06246000 </v>
    <v>       0.24987000       0.92202000       0.06246000 </v>
    <v>       0.25013000       0.07798000       0.31246000 </v>
    <v>       0.00013000       0.92202000       0.31246000 </v>
    <v>       0.99987000       0.07798000       0.06246000 </v>
    <v>       0.74987000       0.92202000       0.06246000 </v>
    <v>       0.75013000       0.07798000       0.31246000 </v>
    <v>       0.50013000       0.92202000       0.31246000 </v>
    <v>       0.49987000       0.07798000       0.56246000 </v>
    <v>       0.24987000       0.92202000       0.56246000 </v>
    <v>       0.25013000       0.07798000       0.81246000 </v>
    <v>       0.00013000       0.92202000       0.81246000 </v>
    <v>       0.99987000       0.07798000       0.56246000 </v>
    <v>       0.74987000       0.92202000       0.56246000 </v>
    <v>       0.75013000       0.07798000       0.81246000 </v>
    <v>       0.50013000       0.92202000       0.81246000 </v>
   </varray>
  </structure>
  <varray name="forces" >
   <v>      -0.53509966      -0.00304163      -0.02336460 </v>
   <v>      -0.28767219      -0.00127934       0.53513533 </v>
   <v>      -0.18672927       0.05866022       0.20347391 </v>
   <v>      -0.36673997       0.06293559      -0.19931811 </v>
   <v>       0.30860604       0.00005316       0.03692077 </v>
   <v>       0.35972044       0.06427597       0.20622405 </v>
   <v>      -0.03710591      -0.00155147       0.03371965 </v>
   <v>       0.22229851       0.00234774      -0.53376309 </v>
   <v>      -0.18803158      -0.06302535      -0.18989184 </v>
   <v>      -0.37023684      -0.06775072       0.21132972 </v>
   <v>      -0.21049423      -0.00312271      -0.02692187 </v>
   <v>       0.20178931       0.05958032      -0.19892257 </v>
   <v>       1.02388640      -0.00205119      -1.02552671 </v>
   <v>       0.03562461      -0.00854565       1.10805485 </v>
   <v>       0.10877806      -0.00150457       0.41040409 </v>
   <v>       0.02816741      -0.00477783       0.17839772 </v>
   <v>      -0.11181653      -1.04483304       0.15251469 </v>
   <v>      -0.21152114      -0.00386224       0.00408772 </v>
   <v>      -0.18225226       0.00347022       0.13721893 </v>
   <v>       0.02259209       0.00277441       0.36462648 </v>
   <v>       0.06845686       0.00339328      -0.22796568 </v>
   <v>       0.27515165       1.05241279      -0.05771306 </v>
   <v>       0.43628070       0.01488754      -0.28703664 </v>
   <v>      -0.09022302       1.02325062      -0.29904078 </v>
   <v>       0.08161628       0.02176691      -0.04508001 </v>
   <v>      -0.20561284      -0.02266104      -0.00976024 </v>
   <v>      -0.25823097       0.01096838      -0.14900317 </v>
   <v>      -0.11064706      -1.04201651      -0.12047129 </v>
   <v>      -0.15025579       1.06843526      -0.03752271 </v>
   <v>       0.29996128      -1.07154811      -0.08446604 </v>
   <v>      -0.00024716       0.22520360      -0.18075010 </v>
   <v>      -0.10372255      -0.11751923      -0.33103515 </v>
   <v>       0.17580862       0.22471847      -0.00078957 </v>
   <v>       0.12845634      -0.22537306      -0.12405210 </v>
   <v>       0.02753811       0.08757059      -0.23445198 </v>
   <v>       0.07027892      -0.18501621      -0.07708450 </v>
   <v>      -0.21554316       0.14153543       0.05327444 </v>
   <v>      -0.07938899      -0.13204292       0.15180898 </v>
   <v>       0.01799604       0.19185550       0.19275661 </v>
   <v>      -0.31141880      -0.12010006       0.23786218 </v>
   <v>       0.16175634       0.14395348       0.00007678 </v>
   <v>      -0.08395055      -0.18851071       0.10422105 </v>
   <v>       0.03446959       0.11789773       0.12298233 </v>
   <v>       0.26032594      -0.18690774       0.07821407 </v>
   <v>      -0.20415989       0.10189211       0.04218271 </v>
   <v>       0.12322161      -0.06705454      -0.03728895 </v>
   <v>       0.08873142      -0.01615504      -0.09174548 </v>
   <v>       0.00732367      -0.02792950      -0.16377243 </v>
   <v>       0.65590928       0.88403927      -0.65793252 </v>
   <v>      -0.61051238      -0.97884849       0.51094242 </v>
   <v>       0.04165318      -0.00075425      -1.33967617 </v>
   <v>      -0.09859929       0.04235316      -1.28518250 </v>
   <v>      -0.20793144       0.02168671       1.18598363 </v>
   <v>       0.14972630      -0.02789360      -0.00049233 </v>
   <v>       0.23903627      -0.02241420       0.08635646 </v>
   <v>       0.59892899      -0.82874869       0.73788394 </v>
   <v>      -0.08146182      -0.02638322       0.07442817 </v>
   <v>      -0.64653478       0.86007736       0.45853635 </v>
   <v>      -1.28792917      -0.01692526       0.34590228 </v>
   <v>       0.47207152       0.83426440      -0.31132356 </v>
   <v>       0.54983507      -0.89814838       0.38523828 </v>
   <v>       0.15807240       0.08203629       0.00058715 </v>
  </varray>
  <varray name="stress" >
   <v>      -7.73061772      -0.11471323       0.66688369 </v>
   <v>      -0.11471367     -14.37223618      -0.10174381 </v>
   <v>       0.66688390      -0.10174397      -9.87164800 </v>
  </varray>
  <energy>
   <i name="e_fr_energy">   -317.36369983 </i>
   <i name="e_wo_entrp">   -317.36369983 </i>
   <i name="e_0_energy">      0.00000000 </i>
  </energy>
  <time name="totalsc"> 1565.68 1570.98</time>
  <eigenvalues>
   <array>
    <dimension dim="1">band</dimension>
    <dimension dim="2">kpoint</dimension>
    <dimension dim="3">spin</dimension>
    <field>eigene</field>
    <field>occ</field>
    <set>
     <set comment="spin 1">
      <set comment="kpoint 1">
       <r>  -40.4606    1.0000 </r>
       <r>  -40.1946    1.0000 </r>
       <r>  -40.0755    1.0000 </r>
       <r>  -39.9919    1.0000 </r>
       <r>  -39.9793    1.0000 </r>
       <r>  -39.7735    1.0000 </r>
       <r>  -39.7523    1.0000 </r>
       <r>  -39.7385    1.0000 </r>
       <r>  -39.6140    1.0000 </r>
       <r>  -39.5283    1.0000 </r>
       <r>  -39.3340    1.0000 </r>
       <r>  -39.3089    1.0000 </r>
       <r>  -18.9794    1.0000 </r>
       <r>  -18.9051    1.0000 </r>
       <r>  -18.9031    1.0000 </r>
       <r>  -18.8972    1.0000 </r>
       <r>  -18.8895    1.0000 </r>
       <r>  -18.8335    1.0000 </r>
       <r>  -18.8268    1.0000 </r>
       <r>  -18.8167    1.0000 </r>
       <r>  -18.8084    1.0000 </r>
       <r>  -18.8008    1.0000 </r>
       <r>  -18.7949    1.0000 </r>
       <r>  -18.7271    1.0000 </r>
       <r>  -18.7175    1.0000 </r>
       <r>  -18.7144    1.0000 </r>
       <r>  -18.7036    1.0000 </r>
       <r>  -18.6877    1.0000 </r>
       <r>  -18.6774    1.0000 </r>
       <r>  -18.6742    1.0000 </r>
       <r>  -18.6701    1.0000 </r>
       <r>  -18.6605    1.0000 </r>
       <r>  -18.6527    1.0000 </r>
       <r>  -18.6400    1.0000 </r>
       <r>  -18.6321    1.0000 </r>
       <r>  -18.6250    1.0000 </r>
       <r>  -18.6243    1.0000 </r>
       <r>  -18.6198    1.0000 </r>
       <r>  -18.6166    1.0000 </r>
       <r>  -18.6121    1.0000 </r>
       <r>  -18.6118    1.0000 </r>
       <r>  -18.6103    1.0000 </r>
       <r>  -18.6080    1.0000 </r>
       <r>  -18.6046    1.0000 </r>
       <r>  -18.6024    1.0000 </r>
       <r>  -18.5987    1.0000 </r>
       <r>  -18.5962    1.0000 </r>
       <r>  -18.5943    1.0000 </r>
       <r>  -18.5845    1.0000 </r>
       <r>  -18.5763    1.0000 </r>
       <r>  -18.5741    1.0000 </r>
       <r>  -18.5430    1.0000 </r>
       <r>  -18.5333    1.0000 </r>
       <r>  -18.5307    1.0000 </r>
       <r>  -18.5288    1.0000 </r>
       <r>  -18.5183    1.0000 </r>
       <r>  -18.5176    1.0000 </r>
       <r>  -18.5134    1.0000 </r>
       <r>  -18.5126    1.0000 </r>
       <r>  -18.5065    1.0000 </r>
       <r>  -18.5027    1.0000 </r>
       <r>  -18.4724    1.0000 </r>
       <r>  -18.4716    1.0000 </r>
       <r>  -18.4620    1.0000 </r>
       <r>  -18.4582    1.0000 </r>
       <r>  -18.4570    1.0000 </r>
       <r>  -18.4531    1.0000 </r>
       <r>  -18.4487    1.0000 </r>
       <r>  -18.4481    1.0000 </r>
       <r>  -18.4472    1.0000 </r>
       <r>  -18.4466    1.0000 </r>
       <r>  -18.4349    1.0000 </r>
       <r>  -18.4303    1.0000 </r>
       <r>  -18.3753    1.0000 </r>
       <r>  -18.3713    1.0000 </r>
       <r>  -18.3697    1.0000 </r>
       <r>  -18.3634    1.0000 </r>
       <r>  -18.3595    1.0000 </r>
       <r>  -18.3580    1.0000 </r>
       <r>  -18.3572    1.0000 </r>
       <r>  -18.3444    1.0000 </r>
       <r>  -18.2997    1.0000 </r>
       <r>  -18.2874    1.0000 </r>
       <r>  -18.2796    1.0000 </r>
       <r>  -18.2691    1.0000 </r>
       <r>  -18.2044    1.0000 </r>
       <r>  -18.1674    1.0000 </r>
       <r>  -18.1567    1.0000 </r>
       <r>  -18.1445    1.0000 </r>
       <r>  -18.1384    1.0000 </r>
       <r>  -18.0880    1.0000 </r>
       <r>  -18.0784    1.0000 </r>
       <r>  -13.6148    1.0000 </r>
       <r>  -13.4691    1.0000 </r>
       <r>  -13.4538    1.0000 </r>
       <r>  -12.8246    1.0000 </r>
       <r>  -12.7522    1.0000 </r>
       <r>  -12.7356    1.0000 </r>
       <r>  -12.6959    1.0000 </r>
       <r>  -12.6750    1.0000 </r>
       <r>  -12.6348    1.0000 </r>
       <r>  -12.6261    1.0000 </r>
       <r>  -12.6137    1.0000 </r>
       <r>  -12.5257    1.0000 </r>
       <r>  -12.5081    1.0000 </r>
       <r>  -11.9642    1.0000 </r>
       <r>  -11.9028    1.0000 </r>
       <r>  -11.8136    1.0000 </r>
       <r>   -9.3058    1.0000 </r>
       <r>   -9.0135    1.0000 </r>
       <r>   -8.4952    1.0000 </r>
       <r>   -8.4913    1.0000 </r>
       <r>   -8.4392    1.0000 </r>
       <r>   -8.4309    1.0000 </r>
       <r>   -8.2734    1.0000 </r>
       <r>   -8.2687    1.0000 </r>
       <r>   -8.2215    1.0000 </r>
       <r>   -8.2068    1.0000 </r>
       <r>   -7.9931    1.0000 </r>
       <r>   -7.9691    1.0000 </r>
       <r>   -7.9617    1.0000 </r>
       <r>   -7.9272    1.0000 </r>
       <r>   -7.3223    1.0000 </r>
       <r>   -7.3165    1.0000 </r>
       <r>   -6.3523    1.0000 </r>
       <r>   -6.3441    1.0000 </r>
       <r>   -6.3199    1.0000 </r>
       <r>   -6.3140    1.0000 </r>
       <r>   -5.5165    1.0000 </r>
       <r>   -5.5102    1.0000 </r>
       <r>   -5.3389    1.0000 </r>
       <r>   -5.3135    1.0000 </r>
       <r>   -5.2423    1.0000 </r>
       <r>   -5.2403    1.0000 </r>
       <r>   -5.1553    1.0000 </r>
       <r>   -5.1183    1.0000 </r>
       <r>   -5.0445    1.0000 </r>
       <r>   -5.0201    1.0000 </r>
       <r>   -3.7643    1.0000 </r>
       <r>   -3.6079    1.0000 </r>
       <r>   -1.3958    1.0000 </r>
       <r>   -1.3056    1.0000 </r>
       <r>   -1.0606    1.0000 </r>
       <r>   -0.9984    1.0000 </r>
       <r>   -0.5197    1.0000 </r>
       <r>   -0.4743    1.0000 </r>
       <r>   -0.4444    1.0000 </r>
       <r>   -0.4378    1.0000 </r>
       <r>   -0.1455    1.0000 </r>
       <r>   -0.1381    1.0000 </r>
       <r>   -0.1251    1.0000 </r>
       <r>   -0.1144    1.0000 </r>
       <r>   -0.0024    1.0000 </r>
       <r>    0.1632    1.0000 </r>
       <r>    0.2475    1.0000 </r>
       <r>    0.4223    1.0000 </r>
       <r>    0.5076    1.0000 </r>
       <r>    0.5553    1.0000 </r>
       <r>    0.5847    1.0000 </r>
       <r>    0.6880    1.0000 </r>
       <r>    0.7221    1.0000 </r>
       <r>    0.7716    1.0000 </r>
       <r>    0.7738    1.0000 </r>
       <r>    0.7853    1.0000 </r>
       <r>    0.8184    1.0000 </r>
       <r>    0.8681    1.0000 </r>
       <r>    0.9584    1.0000 </r>
       <r>    1.0014    1.0000 </r>
       <r>    1.0308    1.0000 </r>
       <r>    1.0561    1.0000 </r>
       <r>    1.0745    1.0000 </r>
       <r>    1.1050    1.0000 </r>
       <r>    1.1762    1.0000 </r>
       <r>    1.2192    1.0000 </r>
       <r>    1.2557    1.0000 </r>
       <r>    1.3207    1.0000 </r>
       <r>    1.3759    1.0000 </r>
       <r>    1.4287    1.0000 </r>
       <r>    1.4598    1.0000 </r>
       <r>    1.4933    1.0000 </r>
       <r>    1.5324    1.0000 </r>
       <r>    1.5892    1.0000 </r>
       <r>    1.6233    1.0000 </r>
       <r>    1.6972    1.0000 </r>
       <r>    1.7166    1.0000 </r>
       <r>    1.7398    1.0000 </r>
       <r>    1.8047    1.0000 </r>
       <r>    1.8726    1.0000 </r>
       <r>    1.9117    1.0000 </r>
       <r>    1.9314    1.0000 </r>
       <r>    1.9965    1.0000 </r>
       <r>    2.0600    1.0000 </r>
       <r>    2.0969    1.0000 </r>
       <r>    2.1239    1.0000 </r>
       <r>    2.2429    1.0000 </r>
       <r>    2.3001    1.0000 </r>
       <r>    2.3794    1.0000 </r>
       <r>    2.3899    1.0000 </r>
       <r>    2.4474    1.0000 </r>
       <r>    2.5767    1.0000 </r>
       <r>    2.5915    1.0000 </r>
       <r>    2.5987    1.0000 </r>
       <r>    2.6167    1.0000 </r>
       <r>    2.6249    1.0000 </r>
       <r>    2.6440    1.0000 </r>
       <r>    2.6521    1.0000 </r>
       <r>    2.6587    1.0000 </r>
       <r>    2.7626    1.0000 </r>
       <r>    2.7906    1.0000 </r>
       <r>    2.8245    1.0000 </r>
       <r>    2.8332    1.0000 </r>
       <r>    2.8689    1.0000 </r>
       <r>    2.8836    1.0000 </r>
       <r>    2.9019    1.0000 </r>
       <r>    2.9494    1.0000 </r>
       <r>    2.9654    1.0000 </r>
       <r>    3.0327    1.0000 </r>
       <r>    3.0342    1.0000 </r>
       <r>    3.1207    1.0000 </r>
       <r>    3.1603    1.0000 </r>
       <r>    3.1884    1.0000 </r>
       <r>    3.2017    1.0000 </r>
       <r>    3.2186    1.0000 </r>
       <r>    3.2546    1.0000 </r>
       <r>    3.2596    1.0000 </r>
       <r>    3.3274    1.0000 </r>
       <r>    3.3691    1.0000 </r>
       <r>    3.4097    1.0000 </r>
       <r>    3.4457    1.0000 </r>
       <r>    3.4679    1.0000 </r>
       <r>    3.5982    1.0000 </r>
       <r>    3.7457    1.0000 </r>
       <r>    4.2230    1.0000 </r>
       <r>    4.2448    1.0000 </r>
       <r>    4.2639    1.0000 </r>
       <r>    4.2708    1.0000 </r>
       <r>    5.0988    0.0000 </r>
       <r>    5.1071    0.0000 </r>
       <r>    5.1750    0.0000 </r>
       <r>    5.1873    0.0000 </r>
       <r>    5.7661    0.0000 </r>
       <r>    5.7702    0.0000 </r>
       <r>    5.8101    0.0000 </r>
       <r>    5.8389    0.0000 </r>
       <r>    6.1468    0.0000 </r>
       <r>    6.1510    0.0000 </r>
       <r>    6.1745    0.0000 </r>
       <r>    6.1815    0.0000 </r>
       <r>    6.2844    0.0000 </r>
       <r>    6.2910    0.0000 </r>
       <r>    6.3038    0.0000 </r>
       <r>    6.3176    0.0000 </r>
       <r>    7.1022    0.0000 </r>
       <r>    7.2050    0.0000 </r>
       <r>    7.2787    0.0000 </r>
       <r>    7.3229    0.0000 </r>
       <r>    7.8542    0.0000 </r>
       <r>    7.8782    0.0000 </r>
       <r>    7.9510    0.0000 </r>
       <r>    8.0112    0.0000 </r>
       <r>    8.0256    0.0000 </r>
       <r>    8.0767    0.0000 </r>
       <r>    8.1919    0.0000 </r>
       <r>    8.2107    0.0000 </r>
       <r>    8.4769    0.0000 </r>
       <r>    8.6817    0.0000 </r>
       <r>    8.7410    0.0000 </r>
       <r>    8.8298    0.0000 </r>
       <r>    8.8443    0.0000 </r>
       <r>    8.9312    0.0000 </r>
       <r>    8.9818    0.0000 </r>
       <r>    9.0173    0.0000 </r>
       <r>    9.0316    0.0000 </r>
       <r>    9.0581    0.0000 </r>
       <r>    9.0919    0.0000 </r>
       <r>    9.1662    0.0000 </r>
       <r>    9.1735    0.0000 </r>
       <r>    9.1995    0.0000 </r>
       <r>    9.2568    0.0000 </r>
       <r>    9.2839    0.0000 </r>
       <r>    9.4602    0.0000 </r>
       <r>    9.5426    0.0000 </r>
       <r>    9.5596    0.0000 </r>
       <r>    9.6370    0.0000 </r>
       <r>    9.7116    0.0000 </r>
       <r>    9.7200    0.0000 </r>
       <r>    9.7779    0.0000 </r>
       <r>    9.8891    0.0000 </r>
       <r>   10.2086    0.0000 </r>
       <r>   10.2525    0.0000 </r>
       <r>   10.2735    0.0000 </r>
       <r>   10.3234    0.0000 </r>
       <r>   10.3844    0.0000 </r>
       <r>   10.5041    0.0000 </r>
       <r>   10.6039    0.0000 </r>
       <r>   10.6155    0.0000 </r>
       <r>   10.6341    0.0000 </r>
       <r>   10.6554    0.0000 </r>
       <r>   11.1373    0.0000 </r>
       <r>   11.3449    0.0000 </r>
       <r>   11.4216    0.0000 </r>
       <r>   11.4534    0.0000 </r>
       <r>   11.6111    0.0000 </r>
       <r>   11.6966    0.0000 </r>
       <r>   11.7328    0.0000 </r>
       <r>   11.8039    0.0000 </r>
       <r>   11.9009    0.0000 </r>
       <r>   11.9728    0.0000 </r>
      </set>
      <set comment="kpoint 2">
       <r>  -40.4606    1.0000 </r>
       <r>  -40.1946    1.0000 </r>
       <r>  -40.0755    1.0000 </r>
       <r>  -39.9919    1.0000 </r>
       <r>  -39.9793    1.0000 </r>
       <r>  -39.7735    1.0000 </r>
       <r>  -39.7523    1.0000 </r>
       <r>  -39.7385    1.0000 </r>
       <r>  -39.6140    1.0000 </r>
       <r>  -39.5283    1.0000 </r>
       <r>  -39.3340    1.0000 </r>
       <r>  -39.3089    1.0000 </r>
       <r>  -18.9794    1.0000 </r>
       <r>  -18.9051    1.0000 </r>
       <r>  -18.9031    1.0000 </r>
       <r>  -18.8972    1.0000 </r>
       <r>  -18.8895    1.0000 </r>
       <r>  -18.8333    1.0000 </r>
       <r>  -18.8267    1.0000 </r>
       <r>  -18.8168    1.0000 </r>
       <r>  -18.8084    1.0000 </r>
       <r>  -18.8008    1.0000 </r>
       <r>  -18.7949    1.0000 </r>
       <r>  -18.7271    1.0000 </r>
       <r>  -18.7175    1.0000 </r>
       <r>  -18.7144    1.0000 </r>
       <r>  -18.7036    1.0000 </r>
       <r>  -18.6878    1.0000 </r>
       <r>  -18.6774    1.0000 </r>
       <r>  -18.6741    1.0000 </r>
       <r>  -18.6701    1.0000 </r>
       <r>  -18.6605    1.0000 </r>
       <r>  -18.6527    1.0000 </r>
       <r>  -18.6365    1.0000 </r>
       <r>  -18.6299    1.0000 </r>
       <r>  -18.6276    1.0000 </r>
       <r>  -18.6238    1.0000 </r>
       <r>  -18.6205    1.0000 </r>
       <r>  -18.6191    1.0000 </r>
       <r>  -18.6165    1.0000 </r>
       <r>  -18.6129    1.0000 </r>
       <r>  -18.6113    1.0000 </r>
       <r>  -18.6112    1.0000 </r>
       <r>  -18.6027    1.0000 </r>
       <r>  -18.6008    1.0000 </r>
       <r>  -18.5964    1.0000 </r>
       <r>  -18.5950    1.0000 </r>
       <r>  -18.5873    1.0000 </r>
       <r>  -18.5833    1.0000 </r>
       <r>  -18.5797    1.0000 </r>
       <r>  -18.5764    1.0000 </r>
       <r>  -18.5431    1.0000 </r>
       <r>  -18.5333    1.0000 </r>
       <r>  -18.5307    1.0000 </r>
       <r>  -18.5287    1.0000 </r>
       <r>  -18.5183    1.0000 </r>
       <r>  -18.5176    1.0000 </r>
       <r>  -18.5134    1.0000 </r>
       <r>  -18.5126    1.0000 </r>
       <r>  -18.5065    1.0000 </r>
       <r>  -18.5028    1.0000 </r>
       <r>  -18.4724    1.0000 </r>
       <r>  -18.4716    1.0000 </r>
       <r>  -18.4621    1.0000 </r>
       <r>  -18.4581    1.0000 </r>
       <r>  -18.4570    1.0000 </r>
       <r>  -18.4534    1.0000 </r>
       <r>  -18.4487    1.0000 </r>
       <r>  -18.4480    1.0000 </r>
       <r>  -18.4472    1.0000 </r>
       <r>  -18.4463    1.0000 </r>
       <r>  -18.4350    1.0000 </r>
       <r>  -18.4303    1.0000 </r>
       <r>  -18.3753    1.0000 </r>
       <r>  -18.3714    1.0000 </r>
       <r>  -18.3697    1.0000 </r>
       <r>  -18.3634    1.0000 </r>
       <r>  -18.3594    1.0000 </r>
       <r>  -18.3579    1.0000 </r>
       <r>  -18.3572    1.0000 </r>
       <r>  -18.3445    1.0000 </r>
       <r>  -18.2997    1.0000 </r>
       <r>  -18.2874    1.0000 </r>
       <r>  -18.2796    1.0000 </r>
       <r>  -18.2690    1.0000 </r>
       <r>  -18.2045    1.0000 </r>
       <r>  -18.1674    1.0000 </r>
       <r>  -18.1567    1.0000 </r>
       <r>  -18.1445    1.0000 </r>
       <r>  -18.1384    1.0000 </r>
       <r>  -18.0880    1.0000 </r>
       <r>  -18.0784    1.0000 </r>
       <r>  -13.6144    1.0000 </r>
       <r>  -13.4695    1.0000 </r>
       <r>  -13.4537    1.0000 </r>
       <r>  -12.8185    1.0000 </r>
       <r>  -12.7647    1.0000 </r>
       <r>  -12.7316    1.0000 </r>
       <r>  -12.6942    1.0000 </r>
       <r>  -12.6772    1.0000 </r>
       <r>  -12.6292    1.0000 </r>
       <r>  -12.6237    1.0000 </r>
       <r>  -12.6190    1.0000 </r>
       <r>  -12.5246    1.0000 </r>
       <r>  -12.5090    1.0000 </r>
       <r>  -11.9643    1.0000 </r>
       <r>  -11.9029    1.0000 </r>
       <r>  -11.8134    1.0000 </r>
       <r>   -9.1634    1.0000 </r>
       <r>   -9.0024    1.0000 </r>
       <r>   -8.8904    1.0000 </r>
       <r>   -8.7272    1.0000 </r>
       <r>   -8.3708    1.0000 </r>
       <r>   -8.3521    1.0000 </r>
       <r>   -8.2287    1.0000 </r>
       <r>   -8.2195    1.0000 </r>
       <r>   -8.1686    1.0000 </r>
       <r>   -8.1543    1.0000 </r>
       <r>   -8.0292    1.0000 </r>
       <r>   -8.0176    1.0000 </r>
       <r>   -7.7128    1.0000 </r>
       <r>   -7.6048    1.0000 </r>
       <r>   -7.5936    1.0000 </r>
       <r>   -7.4851    1.0000 </r>
       <r>   -6.0194    1.0000 </r>
       <r>   -5.9896    1.0000 </r>
       <r>   -5.9064    1.0000 </r>
       <r>   -5.8073    1.0000 </r>
       <r>   -5.7943    1.0000 </r>
       <r>   -5.7634    1.0000 </r>
       <r>   -5.6800    1.0000 </r>
       <r>   -5.6470    1.0000 </r>
       <r>   -5.6112    1.0000 </r>
       <r>   -5.5788    1.0000 </r>
       <r>   -5.4441    1.0000 </r>
       <r>   -5.3887    1.0000 </r>
       <r>   -4.4653    1.0000 </r>
       <r>   -4.3068    1.0000 </r>
       <r>   -4.2970    1.0000 </r>
       <r>   -4.1255    1.0000 </r>
       <r>   -1.2066    1.0000 </r>
       <r>   -0.9961    1.0000 </r>
       <r>   -0.8662    1.0000 </r>
       <r>   -0.6899    1.0000 </r>
       <r>   -0.4489    1.0000 </r>
       <r>   -0.2333    1.0000 </r>
       <r>   -0.1373    1.0000 </r>
       <r>    0.0421    1.0000 </r>
       <r>    0.0738    1.0000 </r>
       <r>    0.1046    1.0000 </r>
       <r>    0.1315    1.0000 </r>
       <r>    0.1901    1.0000 </r>
       <r>    0.2584    1.0000 </r>
       <r>    0.3031    1.0000 </r>
       <r>    0.3756    1.0000 </r>
       <r>    0.3829    1.0000 </r>
       <r>    0.5105    1.0000 </r>
       <r>    0.5447    1.0000 </r>
       <r>    0.5816    1.0000 </r>
       <r>    0.6109    1.0000 </r>
       <r>    0.6731    1.0000 </r>
       <r>    0.6782    1.0000 </r>
       <r>    0.7231    1.0000 </r>
       <r>    0.7278    1.0000 </r>
       <r>    0.7597    1.0000 </r>
       <r>    0.8456    1.0000 </r>
       <r>    0.9107    1.0000 </r>
       <r>    0.9183    1.0000 </r>
       <r>    0.9700    1.0000 </r>
       <r>    1.0173    1.0000 </r>
       <r>    1.0856    1.0000 </r>
       <r>    1.1144    1.0000 </r>
       <r>    1.1793    1.0000 </r>
       <r>    1.2550    1.0000 </r>
       <r>    1.2705    1.0000 </r>
       <r>    1.3101    1.0000 </r>
       <r>    1.3322    1.0000 </r>
       <r>    1.3897    1.0000 </r>
       <r>    1.4762    1.0000 </r>
       <r>    1.5004    1.0000 </r>
       <r>    1.5306    1.0000 </r>
       <r>    1.5446    1.0000 </r>
       <r>    1.5764    1.0000 </r>
       <r>    1.6023    1.0000 </r>
       <r>    1.6235    1.0000 </r>
       <r>    1.6973    1.0000 </r>
       <r>    1.7843    1.0000 </r>
       <r>    1.8198    1.0000 </r>
       <r>    1.8510    1.0000 </r>
       <r>    1.9121    1.0000 </r>
       <r>    1.9239    1.0000 </r>
       <r>    1.9554    1.0000 </r>
       <r>    1.9996    1.0000 </r>
       <r>    2.0554    1.0000 </r>
       <r>    2.0796    1.0000 </r>
       <r>    2.1237    1.0000 </r>
       <r>    2.1579    1.0000 </r>
       <r>    2.1956    1.0000 </r>
       <r>    2.2471    1.0000 </r>
       <r>    2.2731    1.0000 </r>
       <r>    2.3425    1.0000 </r>
       <r>    2.3981    1.0000 </r>
       <r>    2.4113    1.0000 </r>
       <r>    2.4611    1.0000 </r>
       <r>    2.5318    1.0000 </r>
       <r>    2.5688    1.0000 </r>
       <r>    2.5837    1.0000 </r>
       <r>    2.6287    1.0000 </r>
       <r>    2.6428    1.0000 </r>
       <r>    2.7290    1.0000 </r>
       <r>    2.7509    1.0000 </r>
       <r>    2.7576    1.0000 </r>
       <r>    2.7919    1.0000 </r>
       <r>    2.8283    1.0000 </r>
       <r>    2.8456    1.0000 </r>
       <r>    2.8736    1.0000 </r>
       <r>    2.9087    1.0000 </r>
       <r>    2.9563    1.0000 </r>
       <r>    2.9987    1.0000 </r>
       <r>    3.0070    1.0000 </r>
       <r>    3.0865    1.0000 </r>
       <r>    3.1208    1.0000 </r>
       <r>    3.1641    1.0000 </r>
       <r>    3.1743    1.0000 </r>
       <r>    3.2347    1.0000 </r>
       <r>    3.2990    1.0000 </r>
       <r>    3.4023    1.0000 </r>
       <r>    3.4131    1.0000 </r>
       <r>    3.4858    1.0000 </r>
       <r>    3.5122    1.0000 </r>
       <r>    3.5843    1.0000 </r>
       <r>    3.6041    1.0000 </r>
       <r>    3.6667    1.0000 </r>
       <r>    3.6999    1.0000 </r>
       <r>    3.7302    1.0000 </r>
       <r>    3.9093    1.0000 </r>
       <r>    5.5927    0.0000 </r>
       <r>    5.5985    0.0000 </r>
       <r>    5.7415    0.0000 </r>
       <r>    5.7530    0.0000 </r>
       <r>    5.7780    0.0000 </r>
       <r>    5.7923    0.0000 </r>
       <r>    5.9328    0.0000 </r>
       <r>    5.9446    0.0000 </r>
       <r>    7.1851    0.0000 </r>
       <r>    7.2272    0.0000 </r>
       <r>    7.2890    0.0000 </r>
       <r>    7.3359    0.0000 </r>
       <r>    7.3797    0.0000 </r>
       <r>    7.4253    0.0000 </r>
       <r>    7.4748    0.0000 </r>
       <r>    7.5016    0.0000 </r>
       <r>    7.5400    0.0000 </r>
       <r>    7.5466    0.0000 </r>
       <r>    7.6016    0.0000 </r>
       <r>    7.6333    0.0000 </r>
       <r>    7.8422    0.0000 </r>
       <r>    7.8537    0.0000 </r>
       <r>    7.8908    0.0000 </r>
       <r>    7.9016    0.0000 </r>
       <r>    7.9452    0.0000 </r>
       <r>    7.9689    0.0000 </r>
       <r>    7.9880    0.0000 </r>
       <r>    8.0153    0.0000 </r>
       <r>    8.0269    0.0000 </r>
       <r>    8.0508    0.0000 </r>
       <r>    8.0753    0.0000 </r>
       <r>    8.1653    0.0000 </r>
       <r>    8.3040    0.0000 </r>
       <r>    8.3803    0.0000 </r>
       <r>    8.4961    0.0000 </r>
       <r>    8.6833    0.0000 </r>
       <r>    8.7037    0.0000 </r>
       <r>    8.7702    0.0000 </r>
       <r>    8.7853    0.0000 </r>
       <r>    8.7967    0.0000 </r>
       <r>    8.8220    0.0000 </r>
       <r>    8.9152    0.0000 </r>
       <r>    8.9706    0.0000 </r>
       <r>    8.9809    0.0000 </r>
       <r>    9.1324    0.0000 </r>
       <r>    9.3607    0.0000 </r>
       <r>    9.3975    0.0000 </r>
       <r>    9.4325    0.0000 </r>
       <r>    9.6298    0.0000 </r>
       <r>    9.8861    0.0000 </r>
       <r>   10.0122    0.0000 </r>
       <r>   10.2415    0.0000 </r>
       <r>   10.3600    0.0000 </r>
       <r>   10.5086    0.0000 </r>
       <r>   10.5815    0.0000 </r>
       <r>   10.5880    0.0000 </r>
       <r>   10.7688    0.0000 </r>
       <r>   10.7976    0.0000 </r>
       <r>   10.8295    0.0000 </r>
       <r>   10.8379    0.0000 </r>
       <r>   10.8613    0.0000 </r>
       <r>   11.0016    0.0000 </r>
       <r>   11.0286    0.0000 </r>
       <r>   11.0417    0.0000 </r>
       <r>   11.1536    0.0000 </r>
       <r>   11.2746    0.0000 </r>
       <r>   11.3480    0.0000 </r>
       <r>   11.3763    0.0000 </r>
       <r>   11.3998    0.0000 </r>
       <r>   11.4853    0.0000 </r>
       <r>   11.5279    0.0000 </r>
       <r>   11.6735    0.0000 </r>
      </set>
      <set comment="kpoint 3">
       <r>  -40.4606    1.0000 </r>
       <r>  -40.1946    1.0000 </r>
       <r>  -40.0755    1.0000 </r>
       <r>  -39.9919    1.0000 </r>
       <r>  -39.9793    1.0000 </r>
       <r>  -39.7735    1.0000 </r>
       <r>  -39.7523    1.0000 </r>
       <r>  -39.7385    1.0000 </r>
       <r>  -39.6140    1.0000 </r>
       <r>  -39.5283    1.0000 </r>
       <r>  -39.3340    1.0000 </r>
       <r>  -39.3089    1.0000 </r>
       <r>  -18.9794    1.0000 </r>
       <r>  -18.9051    1.0000 </r>
       <r>  -18.9032    1.0000 </r>
       <r>  -18.8972    1.0000 </r>
       <r>  -18.8895    1.0000 </r>
       <r>  -18.8335    1.0000 </r>
       <r>  -18.8268    1.0000 </r>
       <r>  -18.8167    1.0000 </r>
       <r>  -18.8084    1.0000 </r>
       <r>  -18.8008    1.0000 </r>
       <r>  -18.7949    1.0000 </r>
       <r>  -18.7271    1.0000 </r>
       <r>  -18.7175    1.0000 </r>
       <r>  -18.7144    1.0000 </r>
       <r>  -18.7036    1.0000 </r>
       <r>  -18.6877    1.0000 </r>
       <r>  -18.6774    1.0000 </r>
       <r>  -18.6742    1.0000 </r>
       <r>  -18.6701    1.0000 </r>
       <r>  -18.6605    1.0000 </r>
       <r>  -18.6527    1.0000 </r>
       <r>  -18.6400    1.0000 </r>
       <r>  -18.6321    1.0000 </r>
       <r>  -18.6250    1.0000 </r>
       <r>  -18.6243    1.0000 </r>
       <r>  -18.6197    1.0000 </r>
       <r>  -18.6166    1.0000 </r>
       <r>  -18.6121    1.0000 </r>
       <r>  -18.6118    1.0000 </r>
       <r>  -18.6103    1.0000 </r>
       <r>  -18.6080    1.0000 </r>
       <r>  -18.6046    1.0000 </r>
       <r>  -18.6025    1.0000 </r>
       <r>  -18.5987    1.0000 </r>
       <r>  -18.5962    1.0000 </r>
       <r>  -18.5943    1.0000 </r>
       <r>  -18.5845    1.0000 </r>
       <r>  -18.5763    1.0000 </r>
       <r>  -18.5741    1.0000 </r>
       <r>  -18.5430    1.0000 </r>
       <r>  -18.5333    1.0000 </r>
       <r>  -18.5307    1.0000 </r>
       <r>  -18.5288    1.0000 </r>
       <r>  -18.5183    1.0000 </r>
       <r>  -18.5176    1.0000 </r>
       <r>  -18.5133    1.0000 </r>
       <r>  -18.5126    1.0000 </r>
       <r>  -18.5065    1.0000 </r>
       <r>  -18.5028    1.0000 </r>
       <r>  -18.4724    1.0000 </r>
       <r>  -18.4716    1.0000 </r>
       <r>  -18.4620    1.0000 </r>
       <r>  -18.4582    1.0000 </r>
       <r>  -18.4570    1.0000 </r>
       <r>  -18.4531    1.0000 </r>
       <r>  -18.4487    1.0000 </r>
       <r>  -18.4481    1.0000 </r>
       <r>  -18.4472    1.0000 </r>
       <r>  -18.4465    1.0000 </r>
       <r>  -18.4349    1.0000 </r>
       <r>  -18.4303    1.0000 </r>
       <r>  -18.3753    1.0000 </r>
       <r>  -18.3713    1.0000 </r>
       <r>  -18.3697    1.0000 </r>
       <r>  -18.3634    1.0000 </r>
       <r>  -18.3595    1.0000 </r>
       <r>  -18.3580    1.0000 </r>
       <r>  -18.3572    1.0000 </r>
       <r>  -18.3444    1.0000 </r>
       <r>  -18.2997    1.0000 </r>
       <r>  -18.2874    1.0000 </r>
       <r>  -18.2796    1.0000 </r>
       <r>  -18.2691    1.0000 </r>
       <r>  -18.2044    1.0000 </r>
       <r>  -18.1674    1.0000 </r>
       <r>  -18.1567    1.0000 </r>
       <r>  -18.1445    1.0000 </r>
       <r>  -18.1384    1.0000 </r>
       <r>  -18.0880    1.0000 </r>
       <r>  -18.0784    1.0000 </r>
       <r>  -13.6146    1.0000 </r>
       <r>  -13.4692    1.0000 </r>
       <r>  -13.4539    1.0000 </r>
       <r>  -12.8234    1.0000 </r>
       <r>  -12.7515    1.0000 </r>
       <r>  -12.7360    1.0000 </r>
       <r>  -12.6961    1.0000 </r>
       <r>  -12.6750    1.0000 </r>
       <r>  -12.6349    1.0000 </r>
       <r>  -12.6263    1.0000 </r>
       <r>  -12.6137    1.0000 </r>
       <r>  -12.5269    1.0000 </r>
       <r>  -12.5085    1.0000 </r>
       <r>  -11.9639    1.0000 </r>
       <r>  -11.9028    1.0000 </r>
       <r>  -11.8149    1.0000 </r>
       <r>   -9.2972    1.0000 </r>
       <r>   -9.0191    1.0000 </r>
       <r>   -8.5138    1.0000 </r>
       <r>   -8.5096    1.0000 </r>
       <r>   -8.4563    1.0000 </r>
       <r>   -8.4487    1.0000 </r>
       <r>   -8.2529    1.0000 </r>
       <r>   -8.2488    1.0000 </r>
       <r>   -8.2032    1.0000 </r>
       <r>   -8.1869    1.0000 </r>
       <r>   -7.9970    1.0000 </r>
       <r>   -7.9721    1.0000 </r>
       <r>   -7.9645    1.0000 </r>
       <r>   -7.9296    1.0000 </r>
       <r>   -7.3251    1.0000 </r>
       <r>   -7.3194    1.0000 </r>
       <r>   -6.3440    1.0000 </r>
       <r>   -6.3333    1.0000 </r>
       <r>   -6.3105    1.0000 </r>
       <r>   -6.3042    1.0000 </r>
       <r>   -5.5190    1.0000 </r>
       <r>   -5.5151    1.0000 </r>
       <r>   -5.3736    1.0000 </r>
       <r>   -5.3540    1.0000 </r>
       <r>   -5.2648    1.0000 </r>
       <r>   -5.2624    1.0000 </r>
       <r>   -5.1007    1.0000 </r>
       <r>   -5.0789    1.0000 </r>
       <r>   -4.9962    1.0000 </r>
       <r>   -4.9792    1.0000 </r>
       <r>   -3.8348    1.0000 </r>
       <r>   -3.5263    1.0000 </r>
       <r>   -1.3183    1.0000 </r>
       <r>   -1.2633    1.0000 </r>
       <r>   -1.1665    1.0000 </r>
       <r>   -1.0552    1.0000 </r>
       <r>   -0.4095    1.0000 </r>
       <r>   -0.3867    1.0000 </r>
       <r>   -0.3801    1.0000 </r>
       <r>   -0.3604    1.0000 </r>
       <r>   -0.3506    1.0000 </r>
       <r>   -0.2690    1.0000 </r>
       <r>   -0.2373    1.0000 </r>
       <r>   -0.2223    1.0000 </r>
       <r>   -0.1739    1.0000 </r>
       <r>   -0.0282    1.0000 </r>
       <r>    0.0692    1.0000 </r>
       <r>    0.2099    1.0000 </r>
       <r>    0.3133    1.0000 </r>
       <r>    0.3460    1.0000 </r>
       <r>    0.4394    1.0000 </r>
       <r>    0.5251    1.0000 </r>
       <r>    0.5524    1.0000 </r>
       <r>    0.6642    1.0000 </r>
       <r>    0.7511    1.0000 </r>
       <r>    0.8062    1.0000 </r>
       <r>    0.8163    1.0000 </r>
       <r>    0.8272    1.0000 </r>
       <r>    0.8798    1.0000 </r>
       <r>    0.9237    1.0000 </r>
       <r>    1.0273    1.0000 </r>
       <r>    1.1275    1.0000 </r>
       <r>    1.1505    1.0000 </r>
       <r>    1.1634    1.0000 </r>
       <r>    1.2592    1.0000 </r>
       <r>    1.3136    1.0000 </r>
       <r>    1.3705    1.0000 </r>
       <r>    1.4133    1.0000 </r>
       <r>    1.4352    1.0000 </r>
       <r>    1.5319    1.0000 </r>
       <r>    1.5646    1.0000 </r>
       <r>    1.6870    1.0000 </r>
       <r>    1.7242    1.0000 </r>
       <r>    1.7370    1.0000 </r>
       <r>    1.7795    1.0000 </r>
       <r>    1.8348    1.0000 </r>
       <r>    1.8603    1.0000 </r>
       <r>    1.9016    1.0000 </r>
       <r>    1.9393    1.0000 </r>
       <r>    1.9661    1.0000 </r>
       <r>    2.0011    1.0000 </r>
       <r>    2.0222    1.0000 </r>
       <r>    2.0923    1.0000 </r>
       <r>    2.1173    1.0000 </r>
       <r>    2.1807    1.0000 </r>
       <r>    2.2005    1.0000 </r>
       <r>    2.3034    1.0000 </r>
       <r>    2.3383    1.0000 </r>
       <r>    2.4396    1.0000 </r>
       <r>    2.4823    1.0000 </r>
       <r>    2.5066    1.0000 </r>
       <r>    2.5517    1.0000 </r>
       <r>    2.5897    1.0000 </r>
       <r>    2.6041    1.0000 </r>
       <r>    2.6116    1.0000 </r>
       <r>    2.6211    1.0000 </r>
       <r>    2.6293    1.0000 </r>
       <r>    2.6473    1.0000 </r>
       <r>    2.6490    1.0000 </r>
       <r>    2.7082    1.0000 </r>
       <r>    2.7242    1.0000 </r>
       <r>    2.7454    1.0000 </r>
       <r>    2.8137    1.0000 </r>
       <r>    2.8411    1.0000 </r>
       <r>    2.8907    1.0000 </r>
       <r>    2.9076    1.0000 </r>
       <r>    2.9478    1.0000 </r>
       <r>    2.9605    1.0000 </r>
       <r>    2.9946    1.0000 </r>
       <r>    3.0227    1.0000 </r>
       <r>    3.0637    1.0000 </r>
       <r>    3.0934    1.0000 </r>
       <r>    3.1243    1.0000 </r>
       <r>    3.1928    1.0000 </r>
       <r>    3.3363    1.0000 </r>
       <r>    3.3731    1.0000 </r>
       <r>    3.3949    1.0000 </r>
       <r>    3.4243    1.0000 </r>
       <r>    3.4562    1.0000 </r>
       <r>    3.4990    1.0000 </r>
       <r>    3.5176    1.0000 </r>
       <r>    3.5276    1.0000 </r>
       <r>    3.6172    1.0000 </r>
       <r>    3.7041    1.0000 </r>
       <r>    4.2712    1.0000 </r>
       <r>    4.2961    1.0000 </r>
       <r>    4.3177    1.0000 </r>
       <r>    4.3211    1.0000 </r>
       <r>    5.1678    0.0000 </r>
       <r>    5.1785    0.0000 </r>
       <r>    5.2378    0.0000 </r>
       <r>    5.2516    0.0000 </r>
       <r>    5.7759    0.0000 </r>
       <r>    5.7787    0.0000 </r>
       <r>    5.8194    0.0000 </r>
       <r>    5.8468    0.0000 </r>
       <r>    6.2042    0.0000 </r>
       <r>    6.2095    0.0000 </r>
       <r>    6.2257    0.0000 </r>
       <r>    6.2291    0.0000 </r>
       <r>    6.2958    0.0000 </r>
       <r>    6.2982    0.0000 </r>
       <r>    6.3153    0.0000 </r>
       <r>    6.3323    0.0000 </r>
       <r>    6.7436    0.0000 </r>
       <r>    6.9306    0.0000 </r>
       <r>    6.9803    0.0000 </r>
       <r>    7.0741    0.0000 </r>
       <r>    7.2980    0.0000 </r>
       <r>    7.3983    0.0000 </r>
       <r>    7.5371    0.0000 </r>
       <r>    7.5433    0.0000 </r>
       <r>    7.8700    0.0000 </r>
       <r>    7.8957    0.0000 </r>
       <r>    7.9085    0.0000 </r>
       <r>    8.0027    0.0000 </r>
       <r>    8.0479    0.0000 </r>
       <r>    8.3798    0.0000 </r>
       <r>    8.3995    0.0000 </r>
       <r>    8.4832    0.0000 </r>
       <r>    8.7171    0.0000 </r>
       <r>    8.8662    0.0000 </r>
       <r>    8.9287    0.0000 </r>
       <r>    8.9480    0.0000 </r>
       <r>    9.0532    0.0000 </r>
       <r>    9.0725    0.0000 </r>
       <r>    9.1084    0.0000 </r>
       <r>    9.1247    0.0000 </r>
       <r>    9.1457    0.0000 </r>
       <r>    9.1902    0.0000 </r>
       <r>    9.2137    0.0000 </r>
       <r>    9.2380    0.0000 </r>
       <r>    9.5151    0.0000 </r>
       <r>    9.5268    0.0000 </r>
       <r>    9.7492    0.0000 </r>
       <r>    9.7608    0.0000 </r>
       <r>    9.7724    0.0000 </r>
       <r>    9.7830    0.0000 </r>
[...]
       <r>   11.3378    0.0000 </r>
       <r>   11.4029    0.0000 </r>
       <r>   11.4396    0.0000 </r>
       <r>   11.5964    0.0000 </r>
      </set>
     </set>
    </set>
   </array>
  </eigenvalues>
  <separator name="orbital magnetization" >
   <v name="MAGDIPOLOUT">      0.00000000      0.00000000      0.00000000</v>
  </separator>
  <dos>
   <i name="efermi">      4.45088088 </i>
   <total>
    <array>
     <dimension dim="1">gridpoints</dimension>
     <dimension dim="2">spin</dimension>
     <field>energy</field>
     <field>total</field>
     <field>integrated</field>
     <set>
      <set comment="spin 1">
       <r>   -43.1047     0.0000     0.0000 </r>
       <r>   -42.9108     0.0000     0.0000 </r>
       <r>   -42.7169     0.0000     0.0000 </r>
       <r>   -42.5230     0.0000     0.0000 </r>
       <r>   -42.3291     0.0000     0.0000 </r>
       <r>   -42.1352     0.0000     0.0000 </r>
       <r>   -41.9413     0.0000     0.0000 </r>
       <r>   -41.7474     0.0000     0.0000 </r>
       <r>   -41.5535     0.0000     0.0000 </r>
       <r>   -41.3596     0.0000     0.0000 </r>
       <r>   -41.1657     0.0000     0.0000 </r>
       <r>   -40.9718     0.0000     0.0000 </r>
       <r>   -40.7779     0.0000     0.0000 </r>
       <r>   -40.5840     0.0000     0.0000 </r>
       <r>   -40.3900     0.0000     2.0000 </r>
       <r>   -40.1961     0.0000     2.0000 </r>
       <r>   -40.0022     0.0000     6.0000 </r>
       <r>   -39.8083     0.0000    10.0000 </r>
       <r>   -39.6144     0.0000    16.0000 </r>
       <r>   -39.4205     0.0000    20.0000 </r>
       <r>   -39.2266     0.0000    24.0000 </r>
       <r>   -39.0327     0.0000    24.0000 </r>
       <r>   -38.8388     0.0000    24.0000 </r>
       <r>   -38.6449     0.0000    24.0000 </r>
       <r>   -38.4510     0.0000    24.0000 </r>
       <r>   -38.2571     0.0000    24.0000 </r>
       <r>   -38.0632     0.0000    24.0000 </r>
       <r>   -37.8693     0.0000    24.0000 </r>
       <r>   -37.6754     0.0000    24.0000 </r>
       <r>   -37.4814     0.0000    24.0000 </r>
       <r>   -37.2875     0.0000    24.0000 </r>
       <r>   -37.0936     0.0000    24.0000 </r>
       <r>   -36.8997     0.0000    24.0000 </r>
       <r>   -36.7058     0.0000    24.0000 </r>
       <r>   -36.5119     0.0000    24.0000 </r>
       <r>   -36.3180     0.0000    24.0000 </r>
       <r>   -36.1241     0.0000    24.0000 </r>
       <r>   -35.9302     0.0000    24.0000 </r>
       <r>   -35.7363     0.0000    24.0000 </r>
       <r>   -35.5424     0.0000    24.0000 </r>
       <r>   -35.3485     0.0000    24.0000 </r>
       <r>   -35.1546     0.0000    24.0000 </r>
       <r>   -34.9607     0.0000    24.0000 </r>
       <r>   -34.7668     0.0000    24.0000 </r>
       <r>   -34.5728     0.0000    24.0000 </r>
       <r>   -34.3789     0.0000    24.0000 </r>
       <r>   -34.1850     0.0000    24.0000 </r>
       <r>   -33.9911     0.0000    24.0000 </r>
       <r>   -33.7972     0.0000    24.0000 </r>
       <r>   -33.6033     0.0000    24.0000 </r>
       <r>   -33.4094     0.0000    24.0000 </r>
       <r>   -33.2155     0.0000    24.0000 </r>
       <r>   -33.0216     0.0000    24.0000 </r>
       <r>   -32.8277     0.0000    24.0000 </r>
       <r>   -32.6338     0.0000    24.0000 </r>
       <r>   -32.4399     0.0000    24.0000 </r>
       <r>   -32.2460     0.0000    24.0000 </r>
       <r>   -32.0521     0.0000    24.0000 </r>
       <r>   -31.8582     0.0000    24.0000 </r>
       <r>   -31.6642     0.0000    24.0000 </r>
       <r>   -31.4703     0.0000    24.0000 </r>
       <r>   -31.2764     0.0000    24.0000 </r>
       <r>   -31.0825     0.0000    24.0000 </r>
       <r>   -30.8886     0.0000    24.0000 </r>
       <r>   -30.6947     0.0000    24.0000 </r>
       <r>   -30.5008     0.0000    24.0000 </r>
       <r>   -30.3069     0.0000    24.0000 </r>
       <r>   -30.1130     0.0000    24.0000 </r>
       <r>   -29.9191     0.0000    24.0000 </r>
       <r>   -29.7252     0.0000    24.0000 </r>
       <r>   -29.5313     0.0000    24.0000 </r>
       <r>   -29.3374     0.0000    24.0000 </r>
       <r>   -29.1435     0.0000    24.0000 </r>
       <r>   -28.9496     0.0000    24.0000 </r>
       <r>   -28.7556     0.0000    24.0000 </r>
       <r>   -28.5617     0.0000    24.0000 </r>
       <r>   -28.3678     0.0000    24.0000 </r>
       <r>   -28.1739     0.0000    24.0000 </r>
       <r>   -27.9800     0.0000    24.0000 </r>
       <r>   -27.7861     0.0000    24.0000 </r>
       <r>   -27.5922     0.0000    24.0000 </r>
       <r>   -27.3983     0.0000    24.0000 </r>
       <r>   -27.2044     0.0000    24.0000 </r>
       <r>   -27.0105     0.0000    24.0000 </r>
       <r>   -26.8166     0.0000    24.0000 </r>
       <r>   -26.6227     0.0000    24.0000 </r>
       <r>   -26.4288     0.0000    24.0000 </r>
       <r>   -26.2349     0.0000    24.0000 </r>
       <r>   -26.0410     0.0000    24.0000 </r>
       <r>   -25.8470     0.0000    24.0000 </r>
       <r>   -25.6531     0.0000    24.0000 </r>
       <r>   -25.4592     0.0000    24.0000 </r>
       <r>   -25.2653     0.0000    24.0000 </r>
       <r>   -25.0714     0.0000    24.0000 </r>
       <r>   -24.8775     0.0000    24.0000 </r>
       <r>   -24.6836     0.0000    24.0000 </r>
       <r>   -24.4897     0.0000    24.0000 </r>
       <r>   -24.2958     0.0000    24.0000 </r>
       <r>   -24.1019     0.0000    24.0000 </r>
       <r>   -23.9080     0.0000    24.0000 </r>
       <r>   -23.7141     0.0000    24.0000 </r>
       <r>   -23.5202     0.0000    24.0000 </r>
       <r>   -23.3263     0.0000    24.0000 </r>
       <r>   -23.1323     0.0000    24.0000 </r>
       <r>   -22.9384     0.0000    24.0000 </r>
       <r>   -22.7445     0.0000    24.0000 </r>
       <r>   -22.5506     0.0000    24.0000 </r>
       <r>   -22.3567     0.0000    24.0000 </r>
       <r>   -22.1628     0.0000    24.0000 </r>
       <r>   -21.9689     0.0000    24.0000 </r>
       <r>   -21.7750     0.0000    24.0000 </r>
       <r>   -21.5811     0.0000    24.0000 </r>
       <r>   -21.3872     0.0000    24.0000 </r>
       <r>   -21.1933     0.0000    24.0000 </r>
       <r>   -20.9994     0.0000    24.0000 </r>
       <r>   -20.8055     0.0000    24.0000 </r>
       <r>   -20.6116     0.0000    24.0000 </r>
       <r>   -20.4177     0.0000    24.0000 </r>
       <r>   -20.2237     0.0000    24.0000 </r>
       <r>   -20.0298     0.0000    24.0000 </r>
       <r>   -19.8359     0.0000    24.0000 </r>
       <r>   -19.6420     0.0000    24.0000 </r>
       <r>   -19.4481     0.0000    24.0000 </r>
       <r>   -19.2542     0.0000    24.0000 </r>
       <r>   -19.0603     0.0000    24.0000 </r>
       <r>   -18.8664     0.0000    34.0000 </r>
       <r>   -18.6725     0.0000    60.0000 </r>
       <r>   -18.4786     0.0000   122.0000 </r>
       <r>   -18.2847     0.0000   166.0000 </r>
       <r>   -18.0908     0.0000   180.0000 </r>
       <r>   -17.8969     0.0000   184.0000 </r>
       <r>   -17.7030     0.0000   184.0000 </r>
       <r>   -17.5091     0.0000   184.0000 </r>
       <r>   -17.3151     0.0000   184.0000 </r>
       <r>   -17.1212     0.0000   184.0000 </r>
       <r>   -16.9273     0.0000   184.0000 </r>
       <r>   -16.7334     0.0000   184.0000 </r>
       <r>   -16.5395     0.0000   184.0000 </r>
       <r>   -16.3456     0.0000   184.0000 </r>
       <r>   -16.1517     0.0000   184.0000 </r>
       <r>   -15.9578     0.0000   184.0000 </r>
       <r>   -15.7639     0.0000   184.0000 </r>
       <r>   -15.5700     0.0000   184.0000 </r>
       <r>   -15.3761     0.0000   184.0000 </r>
       <r>   -15.1822     0.0000   184.0000 </r>
       <r>   -14.9883     0.0000   184.0000 </r>
       <r>   -14.7944     0.0000   184.0000 </r>
       <r>   -14.6005     0.0000   184.0000 </r>
       <r>   -14.4065     0.0000   184.0000 </r>
       <r>   -14.2126     0.0000   184.0000 </r>
       <r>   -14.0187     0.0000   184.0000 </r>
       <r>   -13.8248     0.0000   184.0000 </r>
       <r>   -13.6309     0.0000   184.0000 </r>
       <r>   -13.4370     0.0000   190.0000 </r>
       <r>   -13.2431     0.0000   190.0000 </r>
       <r>   -13.0492     0.0000   190.0000 </r>
       <r>   -12.8553     0.0000   190.0000 </r>
       <r>   -12.6614     0.0000   200.0000 </r>
       <r>   -12.4675     0.0000   210.0000 </r>
       <r>   -12.2736     0.0000   210.0000 </r>
       <r>   -12.0797     0.0000   210.0000 </r>
       <r>   -11.8858     0.0000   214.0000 </r>
       <r>   -11.6919     0.0000   216.0000 </r>
       <r>   -11.4979     0.0000   216.0000 </r>
       <r>   -11.3040     0.0000   216.0000 </r>
       <r>   -11.1101     0.0000   216.0000 </r>
       <r>   -10.9162     0.0000   216.0000 </r>
       <r>   -10.7223     0.0000   216.0000 </r>
       <r>   -10.5284     0.0000   216.0000 </r>
       <r>   -10.3345     0.0000   216.0000 </r>
       <r>   -10.1406     0.0000   216.0000 </r>
       <r>    -9.9467     0.0000   216.0000 </r>
       <r>    -9.7528     0.0000   216.0000 </r>
       <r>    -9.5589     0.0000   216.0000 </r>
       <r>    -9.3650     0.0000   216.0000 </r>
       <r>    -9.1711    13.8190   216.9009 </r>
       <r>    -8.9772    17.0240   219.1201 </r>
       <r>    -8.7833     5.9225   221.1749 </r>
       <r>    -8.5893    11.7987   223.9753 </r>
       <r>    -8.3954    38.2338   227.8094 </r>
       <r>    -8.2015     4.7608   232.0302 </r>
       <r>    -8.0076    54.2230   235.5467 </r>
       <r>    -7.8137    18.9597   240.2823 </r>
       <r>    -7.6198    15.0834   243.8128 </r>
       <r>    -7.4259    14.0157   247.2563 </r>
       <r>    -7.2320     0.0000   248.0000 </r>
       <r>    -7.0381     0.0000   248.0000 </r>
       <r>    -6.8442     0.0000   248.0000 </r>
       <r>    -6.6503     0.0000   248.0000 </r>
       <r>    -6.4564     0.0000   248.0000 </r>
       <r>    -6.2625     8.5341   248.3206 </r>
       <r>    -6.0686    27.6712   252.0394 </r>
       <r>    -5.8747    17.1701   255.7769 </r>
       <r>    -5.6807    32.3008   259.9324 </r>
       <r>    -5.4868    17.7258   264.4350 </r>
       <r>    -5.2929    21.1833   268.2227 </r>
       <r>    -5.0990    10.6216   271.3590 </r>
       <r>    -4.9051     4.8587   272.2671 </r>
       <r>    -4.7112     8.4150   273.6672 </r>
       <r>    -4.5173    10.0437   275.5006 </r>
       <r>    -4.3234     6.7556   277.0766 </r>
       <r>    -4.1295     6.6449   278.3527 </r>
       <r>    -3.9356     3.9382   279.4171 </r>
       <r>    -3.7417     1.2691   279.8873 </r>
       <r>    -3.5478     0.0205   279.9999 </r>
       <r>    -3.3539     0.0000   280.0000 </r>
       <r>    -3.1600     0.0000   280.0000 </r>
       <r>    -2.9661     0.0000   280.0000 </r>
       <r>    -2.7721     0.0000   280.0000 </r>
       <r>    -2.5782     0.0000   280.0000 </r>
       <r>    -2.3843     0.0000   280.0000 </r>
       <r>    -2.1904     0.0000   280.0000 </r>
       <r>    -1.9965     0.0000   280.0000 </r>
       <r>    -1.8026     0.0000   280.0000 </r>
       <r>    -1.6087     0.0000   280.0000 </r>
       <r>    -1.4148     0.0000   280.0000 </r>
       <r>    -1.2209     6.4184   280.4044 </r>
       <r>    -1.0270    11.2538   281.9954 </r>
       <r>    -0.8331    11.9707   284.4370 </r>
       <r>    -0.6392     8.2052   286.5236 </r>
       <r>    -0.4453    13.4995   287.8767 </r>
       <r>    -0.2514    22.6424   291.7613 </r>
       <r>    -0.0575    38.4956   297.3228 </r>
       <r>     0.1365    27.3815   304.6497 </r>
       <r>     0.3304    41.9693   310.3961 </r>
       <r>     0.5243    37.9173   317.9052 </r>
       <r>     0.7182    46.7571   325.0152 </r>
       <r>     0.9121    50.0541   332.5496 </r>
       <r>     1.1060    61.7232   341.5138 </r>
       <r>     1.2999    29.3644   349.1409 </r>
       <r>     1.4938    46.8805   358.7169 </r>
       <r>     1.6877    43.9305   367.9752 </r>
       <r>     1.8816    53.7780   376.7735 </r>
       <r>     2.0755    49.0387   385.9979 </r>
       <r>     2.2694    48.0797   394.5902 </r>
       <r>     2.4633    50.2702   404.0588 </r>
       <r>     2.6572    42.4031   416.2928 </r>
       <r>     2.8512    74.7401   427.9954 </r>
       <r>     3.0451    57.1789   440.0265 </r>
       <r>     3.2390    44.9606   449.9613 </r>
       <r>     3.4329    39.1410   457.5389 </r>
       <r>     3.6268    20.5759   464.0032 </r>
       <r>     3.8207    18.9159   467.5386 </r>
       <r>     4.0146    10.7236   470.5621 </r>
       <r>     4.2085     2.9073   471.8841 </r>
       <r>     4.4024     0.0000   472.0000 </r>
       <r>     4.5963     0.0000   472.0000 </r>
       <r>     4.7902     0.0000   472.0000 </r>
       <r>     4.9841     0.0000   472.0000 </r>
       <r>     5.1780     0.5288   472.0134 </r>
       <r>     5.3719     4.7183   472.4955 </r>
       <r>     5.5658     9.2762   473.8522 </r>
       <r>     5.7598     8.6201   475.5790 </r>
       <r>     5.9537    21.8019   479.6513 </r>
       <r>     6.1476    12.0361   482.3237 </r>
       <r>     6.3415    11.9527   484.5813 </r>
       <r>     6.5354    14.0173   487.0996 </r>
       <r>     6.7293    16.0277   490.0152 </r>
       <r>     6.9232    18.1760   493.3158 </r>
       <r>     7.1171    22.9724   497.2212 </r>
       <r>     7.3110    33.2442   502.7549 </r>
       <r>     7.5049    36.0904   510.2038 </r>
       <r>     7.6988    28.6778   515.4780 </r>
       <r>     7.8927    53.6940   523.0927 </r>
       <r>     8.0866    31.6285   532.0993 </r>
       <r>     8.2805    20.0868   536.7851 </r>
       <r>     8.4744    19.8623   540.4673 </r>
       <r>     8.6684    26.6565   544.8308 </r>
       <r>     8.8623    42.5114   550.9311 </r>
       <r>     9.0562    31.0500   559.1386 </r>
       <r>     9.2501    14.6284   563.1209 </r>
       <r>     9.4440    13.7636   565.9121 </r>
       <r>     9.6379    17.0911   568.4728 </r>
       <r>     9.8318     9.1175   570.9032 </r>
       <r>    10.0257     8.8451   572.6981 </r>
       <r>    10.2196    14.4264   574.8216 </r>
       <r>    10.4135    27.3628   578.6698 </r>
       <r>    10.6074    25.6304   584.9095 </r>
       <r>    10.8013    39.0590   592.5764 </r>
       <r>    10.9952    24.0358   597.2110 </r>
       <r>    11.1891    19.6182   601.4247 </r>
       <r>    11.3830    25.9641   606.0100 </r>
       <r>    11.5770    20.1405   610.4542 </r>
       <r>    11.7709    11.9515   613.5795 </r>
       <r>    11.9648     5.5128   615.2271 </r>
       <r>    12.1587     1.5625   615.8753 </r>
       <r>    12.3526     0.0894   615.9979 </r>
       <r>    12.5465     0.0000   616.0000 </r>
       <r>    12.7404     0.0000   616.0000 </r>
       <r>    12.9343     0.0000   616.0000 </r>
       <r>    13.1282     0.0000   616.0000 </r>
       <r>    13.3221     0.0000   616.0000 </r>
       <r>    13.5160     0.0000   616.0000 </r>
       <r>    13.7099     0.0000   616.0000 </r>
       <r>    13.9038     0.0000   616.0000 </r>
       <r>    14.0977     0.0000   616.0000 </r>
       <r>    14.2916     0.0000   616.0000 </r>
       <r>    14.4856     0.0000   616.0000 </r>
       <r>    14.6795     0.0000   616.0000 </r>
       <r>    14.8734     0.0000   616.0000 </r>
       <r>    15.0673     0.0000   616.0000 </r>
      </set>
     </set>
    </array>
   </total>
  </dos>
 </calculation>
 <structure name="finalpos" >
  <crystal>
   <varray name="basis" >
    <v>      11.17850000       0.00000000       0.00000000 </v>
    <v>       0.00000000       9.57460000       0.00000000 </v>
    <v>       0.00000000       0.00000000      11.18240000 </v>
   </varray>
   <i name="volume">   1196.84853820 </i>
   <varray name="rec_basis" >
    <v>       0.08945744       0.00000000       0.00000000 </v>
    <v>       0.00000000       0.10444301       0.00000000 </v>
    <v>       0.00000000       0.00000000       0.08942624 </v>
   </varray>
  </crystal>
  <varray name="positions" >
   <v>       0.37539000       0.00017000       0.43687000 </v>
   <v>       0.12461000       0.99984000       0.18687000 </v>
   <v>       0.37461000       0.00017000       0.18687000 </v>
   <v>       0.62539000       0.99984000       0.43687000 </v>
   <v>       0.62461000       0.99984000       0.18687000 </v>
   <v>       0.12539000       0.99984000       0.93687000 </v>
   <v>       0.37539000       0.00017000       0.93687000 </v>
   <v>       0.12461000       0.99984000       0.68687000 </v>
   <v>       0.37461000       0.00017000       0.68687000 </v>
   <v>       0.62539000       0.99984000       0.93687000 </v>
   <v>       0.62461000       0.99984000       0.68687000 </v>
   <v>       0.87461000       0.00017000       0.68687000 </v>
   <v>       0.87539000       0.00017000       0.43687000 </v>
   <v>       0.87539000       0.00017000       0.93687000 </v>
   <v>       0.00013000       0.29519000       0.06281000 </v>
   <v>       0.25013000       0.70481000       0.06281000 </v>
   <v>       0.24987000       0.29519000       0.31282000 </v>
   <v>       0.49987000       0.70481000       0.31282000 </v>
   <v>       0.50013000       0.29519000       0.06281000 </v>
   <v>       0.75013000       0.70481000       0.06281000 </v>
   <v>       0.74987000       0.29519000       0.31282000 </v>
   <v>       0.99987000       0.70481000       0.31282000 </v>
   <v>       0.00013000       0.29519000       0.56281000 </v>
   <v>       0.25013000       0.70481000       0.56281000 </v>
   <v>       0.24987000       0.29519000       0.81282000 </v>
   <v>       0.49987000       0.70481000       0.81282000 </v>
   <v>       0.50013000       0.29519000       0.56281000 </v>
   <v>       0.75013000       0.70481000       0.56281000 </v>
   <v>       0.74987000       0.29519000       0.81282000 </v>
   <v>       0.99987000       0.70481000       0.81282000 </v>
   <v>       0.25005000       0.32677000       0.06286000 </v>
   <v>       0.00005000       0.67323000       0.06286000 </v>
   <v>       0.49995000       0.32677000       0.31286000 </v>
   <v>       0.24995000       0.67323000       0.31286000 </v>
   <v>       0.75005000       0.32677000       0.06286000 </v>
   <v>       0.50005000       0.67323000       0.06286000 </v>
   <v>       0.99995000       0.32677000       0.31286000 </v>
   <v>       0.74995000       0.67323000       0.31286000 </v>
   <v>       0.25005000       0.32677000       0.56286000 </v>
   <v>       0.00005000       0.67323000       0.56286000 </v>
   <v>       0.49995000       0.32677000       0.81286000 </v>
   <v>       0.24995000       0.67323000       0.81286000 </v>
   <v>       0.75005000       0.32677000       0.56286000 </v>
   <v>       0.50005000       0.67323000       0.56286000 </v>
   <v>       0.99995000       0.32677000       0.81286000 </v>
   <v>       0.74995000       0.67323000       0.81286000 </v>
   <v>       0.49987000       0.07798000       0.06246000 </v>
   <v>       0.24987000       0.92202000       0.06246000 </v>
   <v>       0.25013000       0.07798000       0.31246000 </v>
   <v>       0.00013000       0.92202000       0.31246000 </v>
   <v>       0.99987000       0.07798000       0.06246000 </v>
   <v>       0.74987000       0.92202000       0.06246000 </v>
   <v>       0.75013000       0.07798000       0.31246000 </v>
   <v>       0.50013000       0.92202000       0.31246000 </v>
   <v>       0.49987000       0.07798000       0.56246000 </v>
   <v>       0.24987000       0.92202000       0.56246000 </v>
   <v>       0.25013000       0.07798000       0.81246000 </v>
   <v>       0.00013000       0.92202000       0.81246000 </v>
   <v>       0.99987000       0.07798000       0.56246000 </v>
   <v>       0.74987000       0.92202000       0.56246000 </v>
   <v>       0.75013000       0.07798000       0.81246000 </v>
   <v>       0.50013000       0.92202000       0.81246000 </v>
  </varray>
 </structure>
</modeling>
