<?xml version="1.0" encoding="ISO-8859-1"?>
<modeling>
 <generator>
  <i name="program" type="string">vasp </i>
  <i name="version" type="string">5.4.4.18Apr17-6-g9f103f2a35  </i>
  <i name="subversion" type="string">(build Jul 31 2017 11:33:29) complex            parallel </i>
  <i name="platform" type="string">LinuxIFC </i>
  <i name="date" type="string">2021 09 29 </i>
  <i name="time" type="string">15:33:24 </i>
 </generator>
 <incar>
  <i type="string" name="SYSTEM"> La2O2S</i>
  <i type="string" name="PREC">normal</i>
  <i type="int" name="NELMIN">     4</i>
  <i type="int" name="IBRION">     2</i>
  <i type="int" name="NFREE">    10</i>
  <i name="EDIFF">      0.00000100</i>
  <i name="EDIFFG">     -0.01000000</i>
  <i type="int" name="NSW">     1</i>
  <i type="int" name="ISIF">     2</i>
  <i name="ENCUT">    600.00000000</i>
  <i name="ENAUG">    900.00000000</i>
  <i type="int" name="ISMEAR">    -5</i>
  <i type="logical" name="LWAVE"> F  </i>
  <i type="logical" name="LCHARG"> F  </i>
  <v type="int" name="KPOINT_BSE">    -1     0     0     0</v>
 </incar>
 <structure name="primitive_cell" >
  <crystal>
   <varray name="basis" >
    <v>      11.17850000       0.00000000       0.00000000 </v>
    <v>       0.00000000       9.57460000       0.00000000 </v>
    <v>       0.00000000       0.00000000      11.18240000 </v>
   </varray>
   <i name="volume">   1196.84853820 </i>
   <varray name="rec_basis" >
    <v>       0.08945744       0.00000000       0.00000000 </v>
    <v>       0.00000000       0.10444301       0.00000000 </v>
    <v>       0.00000000       0.00000000       0.08942624 </v>
   </varray>
  </crystal>
  <varray name="positions" >
   <v>       0.37539000       0.00017000       0.43687000 </v>
   <v>      -0.49987000      -0.07798000       0.31246000 </v>
   <v>       0.25013000       0.07798000       0.31246000 </v>
   <v>       0.49987000       0.07798000      -0.43754000 </v>
   <v>       0.24987000      -0.07798000      -0.43754000 </v>
   <v>      -0.37461000      -0.00016000       0.43687000 </v>
   <v>       0.49987000      -0.29519000       0.31282000 </v>
   <v>       0.24987000       0.29519000       0.31282000 </v>
   <v>      -0.49987000       0.29519000      -0.43719000 </v>
   <v>       0.25013000      -0.29519000      -0.43719000 </v>
   <v>       0.49995000       0.32677000       0.31286000 </v>
   <v>       0.24995000      -0.32677000       0.31286000 </v>
   <v>      -0.49995000      -0.32677000      -0.43714000 </v>
   <v>       0.25005000       0.32677000      -0.43714000 </v>
   <v>      -0.37539000      -0.00016000       0.18687000 </v>
   <v>      -0.37539000      -0.00016000      -0.31313000 </v>
   <v>       0.12461000      -0.00016000       0.18687000 </v>
   <v>       0.12461000      -0.00016000      -0.31313000 </v>
   <v>       0.49987000       0.07798000       0.06246000 </v>
   <v>      -0.24987000       0.07798000       0.31246000 </v>
   <v>      -0.25013000      -0.07798000      -0.43754000 </v>
   <v>       0.24987000      -0.07798000       0.06246000 </v>
   <v>       0.00013000      -0.07798000       0.31246000 </v>
   <v>      -0.49987000      -0.07798000      -0.18754000 </v>
   <v>      -0.00013000       0.07798000      -0.43754000 </v>
   <v>       0.25013000       0.07798000      -0.18754000 </v>
   <v>      -0.49987000       0.29519000       0.06281000 </v>
   <v>      -0.25013000       0.29519000       0.31282000 </v>
   <v>       0.25013000      -0.29519000       0.06281000 </v>
   <v>      -0.24987000      -0.29519000      -0.43719000 </v>
   <v>      -0.00013000      -0.29519000       0.31282000 </v>
   <v>       0.00013000       0.29519000      -0.43719000 </v>
   <v>       0.49987000      -0.29519000      -0.18718000 </v>
   <v>       0.24987000       0.29519000      -0.18718000 </v>
   <v>      -0.49995000      -0.32677000       0.06286000 </v>
   <v>       0.25005000       0.32677000       0.06286000 </v>
   <v>      -0.25005000      -0.32677000       0.31286000 </v>
   <v>      -0.24995000       0.32677000      -0.43714000 </v>
   <v>      -0.00005000       0.32677000       0.31286000 </v>
   <v>       0.00005000      -0.32677000      -0.43714000 </v>
   <v>       0.49995000       0.32677000      -0.18714000 </v>
   <v>       0.24995000      -0.32677000      -0.18714000 </v>
   <v>      -0.12461000       0.00017000       0.43687000 </v>
   <v>       0.37539000       0.00017000      -0.06313000 </v>
   <v>      -0.25013000      -0.07798000       0.06246000 </v>
   <v>      -0.00013000       0.07798000       0.06246000 </v>
   <v>      -0.24987000       0.07798000      -0.18754000 </v>
   <v>       0.00013000      -0.07798000      -0.18754000 </v>
   <v>      -0.12539000       0.00017000       0.18687000 </v>
   <v>      -0.12539000       0.00017000      -0.31313000 </v>
   <v>      -0.24987000      -0.29519000       0.06281000 </v>
   <v>       0.00013000       0.29519000       0.06281000 </v>
   <v>      -0.25013000       0.29519000      -0.18718000 </v>
   <v>      -0.00013000      -0.29519000      -0.18718000 </v>
   <v>      -0.24995000       0.32677000       0.06286000 </v>
   <v>       0.00005000      -0.32677000       0.06286000 </v>
   <v>      -0.25005000      -0.32677000      -0.18714000 </v>
   <v>      -0.00005000       0.32677000      -0.18714000 </v>
   <v>      -0.12461000       0.00017000      -0.06313000 </v>
  </varray>
 </structure>
 <varray name="primitive_index" >
  <v type="int" >        1 </v>
  <v type="int" >       51 </v>
  <v type="int" >       46 </v>
  <v type="int" >       52 </v>
  <v type="int" >       53 </v>
  <v type="int" >        2 </v>
  <v type="int" >       15 </v>
  <v type="int" >       14 </v>
  <v type="int" >       24 </v>
  <v type="int" >       21 </v>
  <v type="int" >       30 </v>
  <v type="int" >       31 </v>
  <v type="int" >       41 </v>
  <v type="int" >       36 </v>
  <v type="int" >        4 </v>
  <v type="int" >       11 </v>
  <v type="int" >        7 </v>
  <v type="int" >        9 </v>
  <v type="int" >       44 </v>
  <v type="int" >       50 </v>
  <v type="int" >       57 </v>
  <v type="int" >       45 </v>
  <v type="int" >       47 </v>
  <v type="int" >       59 </v>
  <v type="int" >       56 </v>
  <v type="int" >       54 </v>
  <v type="int" >       16 </v>
  <v type="int" >       18 </v>
  <v type="int" >       13 </v>
  <v type="int" >       25 </v>
  <v type="int" >       19 </v>
  <v type="int" >       20 </v>
  <v type="int" >       23 </v>
  <v type="int" >       22 </v>
  <v type="int" >       33 </v>
  <v type="int" >       28 </v>
  <v type="int" >       35 </v>
  <v type="int" >       40 </v>
  <v type="int" >       34 </v>
  <v type="int" >       37 </v>
  <v type="int" >       38 </v>
  <v type="int" >       39 </v>
  <v type="int" >        3 </v>
  <v type="int" >        8 </v>
  <v type="int" >       49 </v>
  <v type="int" >       48 </v>
  <v type="int" >       58 </v>
  <v type="int" >       55 </v>
  <v type="int" >        5 </v>
  <v type="int" >        6 </v>
  <v type="int" >       17 </v>
  <v type="int" >       12 </v>
  <v type="int" >       26 </v>
  <v type="int" >       27 </v>
  <v type="int" >       32 </v>
  <v type="int" >       29 </v>
  <v type="int" >       43 </v>
  <v type="int" >       42 </v>
  <v type="int" >       10 </v>
 </varray>
 <kpoints>
  <generation param="Gamma">
   <v type="int" name="divisions">       2        2        2 </v>
   <v name="usershift">      0.00000000       0.00000000       0.00000000 </v>
   <v name="genvec1">      0.50000000       0.00000000       0.00000000 </v>
   <v name="genvec2">      0.00000000       0.50000000       0.00000000 </v>
   <v name="genvec3">      0.00000000       0.00000000       0.50000000 </v>
   <v name="shift">      0.00000000       0.00000000       0.00000000 </v>
  </generation>
  <varray name="kpointlist" >
   <v>       0.00000000       0.00000000       0.00000000 </v>
   <v>       0.50000000       0.00000000       0.00000000 </v>
   <v>       0.00000000       0.50000000       0.00000000 </v>
   <v>       0.50000000       0.50000000       0.00000000 </v>
   <v>       0.00000000       0.00000000       0.50000000 </v>
   <v>       0.50000000       0.00000000       0.50000000 </v>
   <v>       0.00000000       0.50000000       0.50000000 </v>
   <v>       0.50000000       0.50000000       0.50000000 </v>
  </varray>
  <varray name="weights" >
   <v>       0.12500000 </v>
   <v>       0.12500000 </v>
   <v>       0.12500000 </v>
   <v>       0.12500000 </v>
   <v>       0.12500000 </v>
   <v>       0.12500000 </v>
   <v>       0.12500000 </v>
   <v>       0.12500000 </v>
  </varray>
  <varray name="tetrahedronlist"  type="int" >
   <v type="int" >        2        1        2        4        5 </v>
   <v type="int" >        2        1        3        4        5 </v>
   <v type="int" >        2        3        4        5        7 </v>
   <v type="int" >        2        2        4        5        6 </v>
   <v type="int" >        2        4        5        6        8 </v>
   <v type="int" >        2        4        5        7        8 </v>
   <v type="int" >        2        1        2        3        6 </v>
   <v type="int" >        2        2        3        4        6 </v>
   <v type="int" >        2        3        4        6        8 </v>
   <v type="int" >        2        1        3        5        6 </v>
   <v type="int" >        2        3        5        6        7 </v>
   <v type="int" >        2        3        6        7        8 </v>
   <v type="int" >        2        2        3        4        7 </v>
   <v type="int" >        2        1        2        3        7 </v>
   <v type="int" >        2        1        2        5        7 </v>
   <v type="int" >        2        2        4        7        8 </v>
   <v type="int" >        2        2        6        7        8 </v>
   <v type="int" >        2        2        5        6        7 </v>
   <v type="int" >        2        1        3        4        8 </v>
   <v type="int" >        2        1        2        4        8 </v>
   <v type="int" >        2        1        2        6        8 </v>
   <v type="int" >        2        1        3        7        8 </v>
   <v type="int" >        2        1        5        7        8 </v>
   <v type="int" >        2        1        5        6        8 </v>
  </varray>
  <i name="volumeweight">      0.02083333 </i>
 </kpoints>
 <parameters>
  <separator name="general" >
   <i type="string" name="SYSTEM">La2O2S</i>
   <i type="logical" name="LCOMPAT"> F  </i>
  </separator>
  <separator name="electronic" >
   <i type="string" name="PREC">normal</i>
   <i name="ENMAX">    600.00000000</i>
   <i name="ENAUG">    900.00000000</i>
   <i name="EDIFF">      0.00000100</i>
   <i type="int" name="IALGO">    38</i>
   <i type="int" name="IWAVPR">    11</i>
   <i type="int" name="NBANDS">   280</i>
   <i name="NELECT">    460.00000000</i>
   <i type="int" name="TURBO">     0</i>
   <i type="int" name="IRESTART">     0</i>
   <i type="int" name="NREBOOT">     0</i>
   <i type="int" name="NMIN">     0</i>
   <i name="EREF">      0.00000000</i>
   <separator name="electronic smearing" >
    <i type="int" name="ISMEAR">    -5</i>
    <i name="SIGMA">      0.20000000</i>
    <i name="KSPACING">      0.50000000</i>
    <i type="logical" name="KGAMMA"> T  </i>
   </separator>
   <separator name="electronic projectors" >
    <i type="logical" name="LREAL"> F  </i>
    <v name="ROPT">      0.00000000      0.00000000      0.00000000      0.00000000      0.00000000</v>
    <i type="int" name="LMAXPAW">  -100</i>
    <i type="int" name="LMAXMIX">     2</i>
    <i type="logical" name="NLSPLINE"> F  </i>
   </separator>
   <separator name="electronic startup" >
    <i type="int" name="ISTART">     0</i>
    <i type="int" name="ICHARG">     2</i>
    <i type="int" name="INIWAV">     1</i>
   </separator>
   <separator name="electronic spin" >
    <i type="int" name="ISPIN">     1</i>
    <i type="logical" name="LNONCOLLINEAR"> F  </i>
    <v name="MAGMOM">      1.00000000      1.00000000      1.00000000      1.00000000      1.00000000      1.00000000      1.00000000      1.00000000      1.00000000      1.00000000      1.00000000      1.00000000      1.00000000      1.00000000      1.00000000      1.00000000      1.00000000      1.00000000      1.00000000      1.00000000
      1.00000000      1.00000000      1.00000000      1.00000000      1.00000000      1.00000000      1.00000000      1.00000000      1.00000000      1.00000000      1.00000000      1.00000000      1.00000000      1.00000000      1.00000000      1.00000000      1.00000000      1.00000000      1.00000000      1.00000000
      1.00000000      1.00000000      1.00000000      1.00000000      1.00000000      1.00000000      1.00000000      1.00000000      1.00000000      1.00000000      1.00000000      1.00000000      1.00000000      1.00000000      1.00000000      1.00000000      1.00000000      1.00000000      1.00000000</v>
    <i name="NUPDOWN">     -1.00000000</i>
    <i type="logical" name="LSORBIT"> F  </i>
    <v name="SAXIS">      0.00000000      0.00000000      1.00000000</v>
    <i type="logical" name="LSPIRAL"> F  </i>
    <v name="QSPIRAL">      0.00000000      0.00000000      0.00000000</v>
    <i type="logical" name="LZEROZ"> F  </i>
   </separator>
   <separator name="electronic exchange-correlation" >
    <i type="logical" name="LASPH"> F  </i>
    <i type="logical" name="LMETAGGA"> F  </i>
   </separator>
   <separator name="electronic convergence" >
    <i type="int" name="NELM">    60</i>
    <i type="int" name="NELMDL">    -5</i>
    <i type="int" name="NELMIN">     4</i>
    <i name="ENINI">    600.00000000</i>
    <separator name="electronic convergence detail" >
     <i type="logical" name="LDIAG"> T  </i>
     <i type="logical" name="LSUBROT"> F  </i>
     <i name="WEIMIN">      0.00100000</i>
     <i name="EBREAK">      0.00000000</i>
     <i name="DEPER">      0.30000000</i>
     <i type="int" name="NRMM">     4</i>
     <i name="TIME">      0.40000000</i>
    </separator>
   </separator>
   <separator name="electronic mixer" >
    <i name="AMIX">      0.40000000</i>
    <i name="BMIX">      1.00000000</i>
    <i name="AMIN">      0.10000000</i>
    <i name="AMIX_MAG">      1.60000000</i>
    <i name="BMIX_MAG">      1.00000000</i>
    <separator name="electronic mixer details" >
     <i type="int" name="IMIX">     4</i>
     <i type="logical" name="MIXFIRST"> F  </i>
     <i type="int" name="MAXMIX">   -45</i>
     <i name="WC">    100.00000000</i>
     <i type="int" name="INIMIX">     1</i>
     <i type="int" name="MIXPRE">     1</i>
     <i type="int" name="MREMOVE">     5</i>
    </separator>
   </separator>
   <separator name="electronic dipolcorrection" >
    <i type="logical" name="LDIPOL"> F  </i>
    <i type="logical" name="LMONO"> F  </i>
    <i type="int" name="IDIPOL">     0</i>
    <i name="EPSILON">      1.00000000</i>
    <v name="DIPOL">   -100.00000000   -100.00000000   -100.00000000</v>
    <i name="EFIELD">      0.00000000</i>
   </separator>
  </separator>
  <separator name="grids" >
   <i type="int" name="NGX">    70</i>
   <i type="int" name="NGY">    60</i>
   <i type="int" name="NGZ">    70</i>
   <i type="int" name="NGXF">   140</i>
   <i type="int" name="NGYF">   120</i>
   <i type="int" name="NGZF">   140</i>
   <i type="logical" name="ADDGRID"> F  </i>
  </separator>
  <separator name="ionic" >
   <i type="int" name="NSW">     1</i>
   <i type="int" name="IBRION">     2</i>
   <i type="int" name="MDALGO">     0</i>
   <i type="int" name="ISIF">     2</i>
   <i name="PSTRESS">      0.00000000</i>
   <i name="EDIFFG">     -0.01000000</i>
   <i type="int" name="NFREE">    10</i>
   <i name="POTIM">      0.50000000</i>
   <i name="SMASS">     -3.00000000</i>
   <i name="SCALEE">      1.00000000</i>
  </separator>
  <separator name="ionic md" >
   <i name="TEBEG">      0.00010000</i>
   <i name="TEEND">      0.00010000</i>
   <i type="int" name="NBLOCK">     1</i>
   <i type="int" name="KBLOCK">     1</i>
   <i type="int" name="NPACO">   256</i>
   <i name="APACO">     16.00000000</i>
  </separator>
  <separator name="symmetry" >
   <i type="int" name="ISYM">     2</i>
   <i name="SYMPREC">      0.00001000</i>
  </separator>
  <separator name="dos" >
   <i type="int" name="LORBIT">     0</i>
   <v name="RWIGS">     -1.00000000     -1.00000000     -1.00000000     -1.00000000     -1.00000000</v>
   <i type="int" name="NEDOS">   301</i>
   <i name="EMIN">     10.00000000</i>
   <i name="EMAX">    -10.00000000</i>
   <i name="EFERMI">      0.00000000</i>
  </separator>
  <separator name="writing" >
   <i type="int" name="NWRITE">     2</i>
   <i type="logical" name="LWAVE"> F  </i>
   <i type="logical" name="LDOWNSAMPLE"> F  </i>
   <i type="logical" name="LCHARG"> F  </i>
   <i type="logical" name="LPARD"> F  </i>
   <i type="logical" name="LVTOT"> F  </i>
   <i type="logical" name="LVHAR"> F  </i>
   <i type="logical" name="LELF"> F  </i>
   <i type="logical" name="LOPTICS"> F  </i>
   <v name="STM">      0.00000000      0.00000000      0.00000000      0.00000000      0.00000000      0.00000000      0.00000000</v>
  </separator>
  <separator name="performance" >
   <i type="int" name="NPAR">    28</i>
   <i type="int" name="NSIM">     4</i>
   <i type="int" name="NBLK">    -1</i>
   <i type="logical" name="LPLANE"> T  </i>
   <i type="logical" name="LSCALAPACK"> T  </i>
   <i type="logical" name="LSCAAWARE"> F  </i>
   <i type="logical" name="LSCALU"> F  </i>
   <i type="logical" name="LASYNC"> F  </i>
   <i type="logical" name="LORBITALREAL"> F  </i>
  </separator>
  <separator name="miscellaneous" >
   <i type="int" name="IDIOT">     3</i>
   <i type="int" name="ISPECIAL">     0</i>
   <i type="logical" name="LMUSIC"> F  </i>
   <v name="POMASS">      7.01000000     24.30500000    208.98000000     32.06600000     16.00000000</v>
   <v name="DARWINR">      0.00000000      0.00000000      0.00000000      0.00000000      0.00000000</v>
   <v name="DARWINV">      1.00000000      1.00000000      1.00000000      1.00000000      1.00000000</v>
   <i type="logical" name="LCORR"> T  </i>
  </separator>
  <i type="logical" name="GGA_COMPAT"> T  </i>
  <i type="logical" name="LBERRY"> F  </i>
  <i type="int" name="ICORELEVEL">     0</i>
  <i type="logical" name="LDAU"> F  </i>
  <i type="int" name="I_CONSTRAINED_M">     0</i>
  <separator name="electronic exchange-correlation" >
   <i type="string" name="GGA">--</i>
   <i type="int" name="VOSKOWN">     0</i>
   <i type="logical" name="LHFCALC"> F  </i>
   <i type="string" name="PRECFOCK"></i>
   <i type="logical" name="LSYMGRAD"> F  </i>
   <i type="logical" name="LHFONE"> F  </i>
   <i type="logical" name="LRHFCALC"> F  </i>
   <i type="logical" name="LTHOMAS"> F  </i>
   <i type="logical" name="LMODELHF"> F  </i>
   <i name="ENCUT4O">     -1.00000000</i>
   <i type="int" name="EXXOEP">     0</i>
   <i type="int" name="FOURORBIT">     0</i>
   <i name="AEXX">      0.00000000</i>
   <i name="HFALPHA">      0.00000000</i>
   <i name="MCALPHA">      0.00000000</i>
   <i name="ALDAX">      1.00000000</i>
   <i name="AGGAX">      1.00000000</i>
   <i name="ALDAC">      1.00000000</i>
   <i name="AGGAC">      1.00000000</i>
   <i type="int" name="NKREDX">     1</i>
   <i type="int" name="NKREDY">     1</i>
   <i type="int" name="NKREDZ">     1</i>
   <i type="logical" name="SHIFTRED"> F  </i>
   <i type="logical" name="ODDONLY"> F  </i>
   <i type="logical" name="EVENONLY"> F  </i>
   <i type="int" name="LMAXFOCK">     0</i>
   <i type="int" name="NMAXFOCKAE">     0</i>
   <i type="logical" name="LFOCKAEDFT"> F  </i>
   <i name="HFSCREEN">      0.00000000</i>
   <i name="HFSCREENC">      0.00000000</i>
   <i type="int" name="NBANDSGWLOW">     0</i>
  </separator>
  <separator name="vdW DFT" >
   <i type="logical" name="LUSE_VDW"> F  </i>
   <i name="Zab_VDW">     -0.84910000</i>
   <i name="PARAM1">      0.12340000</i>
   <i name="PARAM2">      1.00000000</i>
   <i name="PARAM3">      0.00000000</i>
  </separator>
  <separator name="model GW" >
   <i type="int" name="MODEL_GW">     0</i>
   <i name="MODEL_EPS0">     12.17134107</i>
   <i name="MODEL_ALPHA">      1.00000000</i>
  </separator>
  <separator name="linear response parameters" >
   <i type="logical" name="LEPSILON"> F  </i>
   <i type="logical" name="LRPA"> F  </i>
   <i type="logical" name="LNABLA"> F  </i>
   <i type="logical" name="LVEL"> F  </i>
   <i type="int" name="KINTER">     0</i>
   <i name="CSHIFT">      0.10000000</i>
   <i name="OMEGAMAX">     -1.00000000</i>
   <i name="DEG_THRESHOLD">      0.00200000</i>
   <i name="RTIME">     -0.10000000</i>
   <i name="WPLASMAI">      0.00000000</i>
   <v name="DFIELD">      0.00000000      0.00000000      0.00000000</v>
   <v name="WPLASMA">      0.00000000      0.00000000      0.00000000      0.00000000      0.00000000      0.00000000      0.00000000      0.00000000      0.00000000</v>
  </separator>
  <separator name="orbital magnetization" >
   <i type="logical" name="NUCIND"> F  </i>
   <v name="MAGPOS">      0.00000000      0.00000000      0.00000000</v>
   <i type="logical" name="LNICSALL"> T  </i>
   <i type="logical" name="ORBITALMAG"> F  </i>
   <i type="logical" name="LMAGBLOCH"> F  </i>
   <i type="logical" name="LCHIMAG"> F  </i>
   <i type="logical" name="LGAUGE"> T  </i>
   <i type="int" name="MAGATOM">     0</i>
   <v name="MAGDIPOL">      0.00000000      0.00000000      0.00000000</v>
   <v name="AVECCONST">      0.00000000      0.00000000      0.00000000</v>
  </separator>
  <separator name="response functions" >
   <i type="logical" name="LADDER"> F  </i>
   <i type="logical" name="LRPAFORCE"> F  </i>
   <i type="logical" name="LFXC"> F  </i>
   <i type="logical" name="LHARTREE"> T  </i>
   <i type="int" name="IBSE">     0</i>
   <v type="int" name="KPOINT">    -1     0     0     0</v>
   <i type="logical" name="LTCTE"> F  </i>
   <i type="logical" name="LTETE"> F  </i>
   <i type="logical" name="LTRIPLET"> F  </i>
   <i type="logical" name="LFXCEPS"> F  </i>
   <i type="logical" name="LFXHEG"> F  </i>
   <i type="int" name="NATURALO">     2</i>
   <i type="logical" name="L2ORDER"> F  </i>
   <i type="logical" name="LMP2LT"> F  </i>
   <i type="logical" name="LUSEW"> F  </i>
   <i name="ENCUTGW">     -2.00000000</i>
   <i name="ENCUTGWSOFT">     -2.00000000</i>
   <i name="ENCUTLF">     -1.00000000</i>
   <i type="int" name="LMAXMP2">    -1</i>
   <i name="SCISSOR">      0.00000000</i>
   <i type="int" name="NOMEGA">     0</i>
   <i type="int" name="NOMEGAR">     0</i>
   <i type="int" name="NBANDSGW">    -1</i>
   <i type="int" name="NBANDSO">    -1</i>
   <i type="int" name="NBANDSV">    -1</i>
   <i type="int" name="NELM">     1</i>
   <i type="int" name="NELMHF">     1</i>
   <i type="int" name="DIM">     3</i>
   <i type="int" name="ANTIRES">     0</i>
   <i name="OMEGAMAX">    -30.00000000</i>
   <i name="OMEGAMIN">    -30.00000000</i>
   <i name="OMEGATL">   -200.00000000</i>
   <i type="int" name="OMEGAGRID">   140</i>
   <i name="CSHIFT">     -0.10000000</i>
   <i type="logical" name="SELFENERGY"> F  </i>
   <i type="logical" name="LSPECTRAL"> F  </i>
   <i type="logical" name="LSPECTRALGW"> F  </i>
   <i type="logical" name="LSINGLES"> F  </i>
   <i type="logical" name="LFERMIGW"> F  </i>
   <i type="logical" name="ODDONLYGW"> F  </i>
   <i type="logical" name="EVENONLYGW"> F  </i>
   <i type="int" name="NKREDLFX">     1</i>
   <i type="int" name="NKREDLFY">     1</i>
   <i type="int" name="NKREDLFZ">     1</i>
   <i type="int" name="MAXMEM">  2800</i>
   <i type="int" name="TELESCOPE">     0</i>
   <i type="int" name="TAUPAR">     1</i>
   <i type="int" name="OMEGAPAR">    -1</i>
   <i name="LAMBDA">      1.00000000</i>
  </separator>
  <separator name="External order field" >
   <i name="OFIELD_KAPPA">      0.00000000</i>
   <v name="OFIELD_K">      0.00000000      0.00000000      0.00000000</v>
   <i name="OFIELD_Q6_NEAR">      0.00000000</i>
   <i name="OFIELD_Q6_FAR">      0.00000000</i>
   <i name="OFIELD_A">      0.00000000</i>
  </separator>
 </parameters>
 <atominfo>
  <atoms>      59 </atoms>
  <types>       5 </types>
  <array name="atoms" >
   <dimension dim="1">ion</dimension>
   <field type="string">element</field>
   <field type="int">atomtype</field>
   <set>
    <rc><c>Li</c><c>   1</c></rc>
    <rc><c>Li</c><c>   1</c></rc>
    <rc><c>Li</c><c>   1</c></rc>
    <rc><c>Li</c><c>   1</c></rc>
    <rc><c>Li</c><c>   1</c></rc>
    <rc><c>Li</c><c>   1</c></rc>
    <rc><c>Mg</c><c>   2</c></rc>
    <rc><c>Mg</c><c>   2</c></rc>
    <rc><c>Mg</c><c>   2</c></rc>
    <rc><c>Mg</c><c>   2</c></rc>
    <rc><c>Mg</c><c>   2</c></rc>
    <rc><c>Bi</c><c>   3</c></rc>
    <rc><c>Bi</c><c>   3</c></rc>
    <rc><c>Bi</c><c>   3</c></rc>
    <rc><c>Bi</c><c>   3</c></rc>
    <rc><c>Bi</c><c>   3</c></rc>
    <rc><c>Bi</c><c>   3</c></rc>
    <rc><c>Bi</c><c>   3</c></rc>
    <rc><c>Bi</c><c>   3</c></rc>
    <rc><c>Bi</c><c>   3</c></rc>
    <rc><c>Bi</c><c>   3</c></rc>
    <rc><c>Bi</c><c>   3</c></rc>
    <rc><c>Bi</c><c>   3</c></rc>
    <rc><c>Bi</c><c>   3</c></rc>
    <rc><c>Bi</c><c>   3</c></rc>
    <rc><c>Bi</c><c>   3</c></rc>
    <rc><c>Bi</c><c>   3</c></rc>
    <rc><c>S </c><c>   4</c></rc>
    <rc><c>S </c><c>   4</c></rc>
    <rc><c>S </c><c>   4</c></rc>
    <rc><c>S </c><c>   4</c></rc>
    <rc><c>S </c><c>   4</c></rc>
    <rc><c>S </c><c>   4</c></rc>
    <rc><c>S </c><c>   4</c></rc>
    <rc><c>S </c><c>   4</c></rc>
    <rc><c>S </c><c>   4</c></rc>
    <rc><c>S </c><c>   4</c></rc>
    <rc><c>S </c><c>   4</c></rc>
    <rc><c>S </c><c>   4</c></rc>
    <rc><c>S </c><c>   4</c></rc>
    <rc><c>S </c><c>   4</c></rc>
    <rc><c>S </c><c>   4</c></rc>
    <rc><c>S </c><c>   4</c></rc>
    <rc><c>O </c><c>   5</c></rc>
    <rc><c>O </c><c>   5</c></rc>
    <rc><c>O </c><c>   5</c></rc>
    <rc><c>O </c><c>   5</c></rc>
    <rc><c>O </c><c>   5</c></rc>
    <rc><c>O </c><c>   5</c></rc>
    <rc><c>O </c><c>   5</c></rc>
    <rc><c>O </c><c>   5</c></rc>
    <rc><c>O </c><c>   5</c></rc>
    <rc><c>O </c><c>   5</c></rc>
    <rc><c>O </c><c>   5</c></rc>
    <rc><c>O </c><c>   5</c></rc>
    <rc><c>O </c><c>   5</c></rc>
    <rc><c>O </c><c>   5</c></rc>
    <rc><c>O </c><c>   5</c></rc>
    <rc><c>O </c><c>   5</c></rc>
   </set>
  </array>
  <array name="atomtypes" >
   <dimension dim="1">type</dimension>
   <field type="int">atomspertype</field>
   <field type="string">element</field>
   <field>mass</field>
   <field>valence</field>
   <field type="string">pseudopotential</field>
   <set>
    <rc><c>   6</c><c>Li</c><c>      7.01000000</c><c>      3.00000000</c><c>  PAW_PBE Li_sv 10Sep2004               </c></rc>
    <rc><c>   5</c><c>Mg</c><c>     24.30500000</c><c>      2.00000000</c><c>  PAW_PBE Mg 13Apr2007                  </c></rc>
    <rc><c>  16</c><c>Bi</c><c>    208.98000000</c><c>     15.00000000</c><c>  PAW_PBE Bi_d 06Sep2000                </c></rc>
    <rc><c>  16</c><c>S </c><c>     32.06600000</c><c>      6.00000000</c><c>  PAW_PBE S 06Sep2000                   </c></rc>
    <rc><c>  16</c><c>O </c><c>     16.00000000</c><c>      6.00000000</c><c>  PAW_PBE O 08Apr2002                   </c></rc>
   </set>
  </array>
 </atominfo>
 <structure name="initialpos" >
  <crystal>
   <varray name="basis" >
    <v>      11.17850000       0.00000000       0.00000000 </v>
    <v>       0.00000000       9.57460000       0.00000000 </v>
    <v>       0.00000000       0.00000000      11.18240000 </v>
   </varray>
   <i name="volume">   1196.84853820 </i>
   <varray name="rec_basis" >
    <v>       0.08945744       0.00000000       0.00000000 </v>
    <v>       0.00000000       0.10444301       0.00000000 </v>
    <v>       0.00000000       0.00000000       0.08942624 </v>
   </varray>
  </crystal>
  <varray name="positions" >
   <v>       0.37539000       0.00017000       0.43687000 </v>
   <v>       0.62539000       0.99984000       0.43687000 </v>
   <v>       0.87539000       0.00017000       0.43687000 </v>
   <v>       0.62461000       0.99984000       0.18687000 </v>
   <v>       0.87461000       0.00017000       0.18687000 </v>
   <v>       0.87461000       0.00017000       0.68687000 </v>
   <v>       0.12461000       0.99984000       0.18687000 </v>
   <v>       0.37539000       0.00017000       0.93687000 </v>
   <v>       0.12461000       0.99984000       0.68687000 </v>
   <v>       0.87539000       0.00017000       0.93687000 </v>
   <v>       0.62461000       0.99984000       0.68687000 </v>
   <v>       0.00013000       0.29519000       0.06281000 </v>
   <v>       0.25013000       0.70481000       0.06281000 </v>
   <v>       0.24987000       0.29519000       0.31282000 </v>
   <v>       0.49987000       0.70481000       0.31282000 </v>
   <v>       0.50013000       0.29519000       0.06281000 </v>
   <v>       0.75013000       0.70481000       0.06281000 </v>
   <v>       0.74987000       0.29519000       0.31282000 </v>
   <v>       0.99987000       0.70481000       0.31282000 </v>
   <v>       0.00013000       0.29519000       0.56281000 </v>
   <v>       0.25013000       0.70481000       0.56281000 </v>
   <v>       0.24987000       0.29519000       0.81282000 </v>
   <v>       0.49987000       0.70481000       0.81282000 </v>
   <v>       0.50013000       0.29519000       0.56281000 </v>
   <v>       0.75013000       0.70481000       0.56281000 </v>
   <v>       0.74987000       0.29519000       0.81282000 </v>
   <v>       0.99987000       0.70481000       0.81282000 </v>
   <v>       0.25005000       0.32677000       0.06286000 </v>
   <v>       0.00005000       0.67323000       0.06286000 </v>
   <v>       0.49995000       0.32677000       0.31286000 </v>
   <v>       0.24995000       0.67323000       0.31286000 </v>
   <v>       0.75005000       0.32677000       0.06286000 </v>
   <v>       0.50005000       0.67323000       0.06286000 </v>
   <v>       0.99995000       0.32677000       0.31286000 </v>
   <v>       0.74995000       0.67323000       0.31286000 </v>
   <v>       0.25005000       0.32677000       0.56286000 </v>
   <v>       0.00005000       0.67323000       0.56286000 </v>
   <v>       0.49995000       0.32677000       0.81286000 </v>
   <v>       0.24995000       0.67323000       0.81286000 </v>
   <v>       0.75005000       0.32677000       0.56286000 </v>
   <v>       0.50005000       0.67323000       0.56286000 </v>
   <v>       0.99995000       0.32677000       0.81286000 </v>
   <v>       0.74995000       0.67323000       0.81286000 </v>
   <v>       0.49987000       0.07798000       0.06246000 </v>
   <v>       0.24987000       0.92202000       0.06246000 </v>
   <v>       0.25013000       0.07798000       0.31246000 </v>
   <v>       0.00013000       0.92202000       0.31246000 </v>
   <v>       0.99987000       0.07798000       0.06246000 </v>
   <v>       0.74987000       0.92202000       0.06246000 </v>
   <v>       0.75013000       0.07798000       0.31246000 </v>
   <v>       0.50013000       0.92202000       0.31246000 </v>
   <v>       0.49987000       0.07798000       0.56246000 </v>
   <v>       0.24987000       0.92202000       0.56246000 </v>
   <v>       0.25013000       0.07798000       0.81246000 </v>
   <v>       0.00013000       0.92202000       0.81246000 </v>
   <v>       0.99987000       0.07798000       0.56246000 </v>
   <v>       0.74987000       0.92202000       0.56246000 </v>
   <v>       0.75013000       0.07798000       0.81246000 </v>
   <v>       0.50013000       0.92202000       0.81246000 </v>
  </varray>
 </structure>
 <calculation>
  <scstep>
   <time name="dav">   60.11   60.23</time>
   <time name="total">   60.19   60.32</time>
   <energy>
    <i name="alphaZ">   1060.66890660 </i>
    <i name="ewald"> -30400.28595447 </i>
    <i name="hartreedc"> -12718.64699916 </i>
    <i name="XCdc">   1247.15155339 </i>
    <i name="pawpsdc">  36635.26894311 </i>
    <i name="pawaedc"> -35972.74895369 </i>
    <i name="eentropy">      0.00000000 </i>
    <i name="bandstr">   1868.03444258 </i>
    <i name="atom">  44026.03258983 </i>
    <i name="e_fr_energy">   5745.47452819 </i>
    <i name="e_wo_entrp">   5745.47452819 </i>
    <i name="e_0_energy">   5745.47452819 </i>
   </energy>
  </scstep>
  <scstep>
   <time name="dav">   61.03   61.06</time>
   <time name="total">   61.05   61.07</time>
   <energy>
    <i name="e_fr_energy">    761.14469898 </i>
    <i name="e_wo_entrp">    761.14469898 </i>
    <i name="e_0_energy">    761.14469898 </i>
   </energy>
  </scstep>
  <scstep>
   <time name="dav">   70.30   70.44</time>
   <time name="total">   70.31   70.45</time>
   <energy>
    <i name="e_fr_energy">   -244.91247087 </i>
    <i name="e_wo_entrp">   -244.91247087 </i>
    <i name="e_0_energy">   -244.91247087 </i>
   </energy>
  </scstep>
  <scstep>
   <time name="dav">   72.06   72.79</time>
   <time name="total">   72.06   72.79</time>
   <energy>
    <i name="e_fr_energy">   -337.10232068 </i>
    <i name="e_wo_entrp">   -337.10232068 </i>
    <i name="e_0_energy">   -337.10232068 </i>
   </energy>
  </scstep>
  <scstep>
   <time name="dav">   94.36   94.66</time>
   <time name="total">   95.08   95.38</time>
   <energy>
    <i name="e_fr_energy">   -344.19294999 </i>
    <i name="e_wo_entrp">   -344.19294999 </i>
    <i name="e_0_energy">   -344.19294999 </i>
   </energy>
  </scstep>
  <scstep>
   <time name="dav">   85.39   86.26</time>
   <time name="total">   86.17   87.05</time>
   <energy>
    <i name="e_fr_energy">   -288.47958406 </i>
    <i name="e_wo_entrp">   -288.47958406 </i>
    <i name="e_0_energy">   -288.47958406 </i>
   </energy>
  </scstep>
  <scstep>
   <time name="dav">   64.94   65.74</time>
   <time name="total">   65.72   66.53</time>
   <energy>
    <i name="e_fr_energy">   -290.83826368 </i>
    <i name="e_wo_entrp">   -290.83826368 </i>
    <i name="e_0_energy">   -290.83826368 </i>
   </energy>
  </scstep>
  <scstep>
   <time name="dav">   76.74   76.98</time>
   <time name="total">   77.53   77.76</time>
   <energy>
    <i name="e_fr_energy">   -289.83609431 </i>
    <i name="e_wo_entrp">   -289.83609431 </i>
    <i name="e_0_energy">   -289.83609431 </i>
   </energy>
  </scstep>
  <scstep>
   <time name="dav">   74.54   74.61</time>
   <time name="total">   75.33   75.40</time>
   <energy>
    <i name="e_fr_energy">   -289.32030920 </i>
    <i name="e_wo_entrp">   -289.32030920 </i>
    <i name="e_0_energy">   -289.32030920 </i>
   </energy>
  </scstep>
  <scstep>
   <time name="dav">   71.61   71.92</time>
   <time name="total">   72.39   72.71</time>
   <energy>
    <i name="e_fr_energy">   -289.34843967 </i>
    <i name="e_wo_entrp">   -289.34843967 </i>
    <i name="e_0_energy">   -289.34843967 </i>
   </energy>
  </scstep>
  <scstep>
   <time name="dav">   81.06   81.80</time>
   <time name="total">   81.85   82.60</time>
   <energy>
    <i name="e_fr_energy">   -289.35329370 </i>
    <i name="e_wo_entrp">   -289.35329370 </i>
    <i name="e_0_energy">   -289.35329370 </i>
   </energy>
  </scstep>
  <scstep>
   <time name="dav">   75.88   76.58</time>
   <time name="total">   76.67   77.37</time>
   <energy>
    <i name="e_fr_energy">   -289.35610847 </i>
    <i name="e_wo_entrp">   -289.35610847 </i>
    <i name="e_0_energy">   -289.35610847 </i>
   </energy>
  </scstep>
  <scstep>
   <time name="dav">   73.52   74.33</time>
   <time name="total">   74.31   75.12</time>
   <energy>
    <i name="e_fr_energy">   -289.35740480 </i>
    <i name="e_wo_entrp">   -289.35740480 </i>
    <i name="e_0_energy">   -289.35740480 </i>
   </energy>
  </scstep>
  <scstep>
   <time name="dav">   79.64   80.31</time>
   <time name="total">   80.43   81.10</time>
   <energy>
    <i name="e_fr_energy">   -289.35762452 </i>
    <i name="e_wo_entrp">   -289.35762452 </i>
    <i name="e_0_energy">   -289.35762452 </i>
   </energy>
  </scstep>
  <scstep>
   <time name="dav">   78.54   78.77</time>
   <time name="total">   79.33   79.56</time>
   <energy>
    <i name="e_fr_energy">   -289.35766092 </i>
    <i name="e_wo_entrp">   -289.35766092 </i>
    <i name="e_0_energy">   -289.35766092 </i>
   </energy>
  </scstep>
  <scstep>
   <time name="dav">   69.65   69.78</time>
   <time name="total">   70.43   70.57</time>
   <energy>
    <i name="e_fr_energy">   -289.35768268 </i>
    <i name="e_wo_entrp">   -289.35768268 </i>
    <i name="e_0_energy">   -289.35768268 </i>
   </energy>
  </scstep>
  <scstep>
   <time name="dav">   71.72   71.76</time>
   <time name="total">   72.60   72.65</time>
   <energy>
    <i name="e_fr_energy">   -289.35768465 </i>
    <i name="e_wo_entrp">   -289.35768465 </i>
    <i name="e_0_energy">   -289.35768465 </i>
   </energy>
  </scstep>
  <scstep>
   <time name="dav">   59.59   59.66</time>
   <time name="total">   59.66   59.73</time>
   <energy>
    <i name="alphaZ">   1060.66890660 </i>
    <i name="ewald"> -30400.28595447 </i>
    <i name="hartreedc"> -12959.72665916 </i>
    <i name="XCdc">   1271.99155581 </i>
    <i name="pawpsdc">  43670.00157732 </i>
    <i name="pawaedc"> -42980.95117464 </i>
    <i name="eentropy">      0.00000000 </i>
    <i name="bandstr">  -3977.08852643 </i>
    <i name="atom">  44026.03258983 </i>
    <i name="e_fr_energy">   -289.35768516 </i>
    <i name="e_wo_entrp">   -289.35768516 </i>
    <i name="e_0_energy">   -289.35768516 </i>
   </energy>
  </scstep>
  <structure>
   <crystal>
    <varray name="basis" >
     <v>      11.17850000       0.00000000       0.00000000 </v>
     <v>       0.00000000       9.57460000       0.00000000 </v>
     <v>       0.00000000       0.00000000      11.18240000 </v>
    </varray>
    <i name="volume">   1196.84853820 </i>
    <varray name="rec_basis" >
     <v>       0.08945744       0.00000000       0.00000000 </v>
     <v>       0.00000000       0.10444301       0.00000000 </v>
     <v>       0.00000000       0.00000000       0.08942624 </v>
    </varray>
   </crystal>
   <varray name="positions" >
    <v>       0.37539000       0.00017000       0.43687000 </v>
    <v>       0.62539000       0.99984000       0.43687000 </v>
    <v>       0.87539000       0.00017000       0.43687000 </v>
    <v>       0.62461000       0.99984000       0.18687000 </v>
    <v>       0.87461000       0.00017000       0.18687000 </v>
    <v>       0.87461000       0.00017000       0.68687000 </v>
    <v>       0.12461000       0.99984000       0.18687000 </v>
    <v>       0.37539000       0.00017000       0.93687000 </v>
    <v>       0.12461000       0.99984000       0.68687000 </v>
    <v>       0.87539000       0.00017000       0.93687000 </v>
    <v>       0.62461000       0.99984000       0.68687000 </v>
    <v>       0.00013000       0.29519000       0.06281000 </v>
    <v>       0.25013000       0.70481000       0.06281000 </v>
    <v>       0.24987000       0.29519000       0.31282000 </v>
    <v>       0.49987000       0.70481000       0.31282000 </v>
    <v>       0.50013000       0.29519000       0.06281000 </v>
    <v>       0.75013000       0.70481000       0.06281000 </v>
    <v>       0.74987000       0.29519000       0.31282000 </v>
    <v>       0.99987000       0.70481000       0.31282000 </v>
    <v>       0.00013000       0.29519000       0.56281000 </v>
    <v>       0.25013000       0.70481000       0.56281000 </v>
    <v>       0.24987000       0.29519000       0.81282000 </v>
    <v>       0.49987000       0.70481000       0.81282000 </v>
    <v>       0.50013000       0.29519000       0.56281000 </v>
    <v>       0.75013000       0.70481000       0.56281000 </v>
    <v>       0.74987000       0.29519000       0.81282000 </v>
    <v>       0.99987000       0.70481000       0.81282000 </v>
    <v>       0.25005000       0.32677000       0.06286000 </v>
    <v>       0.00005000       0.67323000       0.06286000 </v>
    <v>       0.49995000       0.32677000       0.31286000 </v>
    <v>       0.24995000       0.67323000       0.31286000 </v>
    <v>       0.75005000       0.32677000       0.06286000 </v>
    <v>       0.50005000       0.67323000       0.06286000 </v>
    <v>       0.99995000       0.32677000       0.31286000 </v>
    <v>       0.74995000       0.67323000       0.31286000 </v>
    <v>       0.25005000       0.32677000       0.56286000 </v>
    <v>       0.00005000       0.67323000       0.56286000 </v>
    <v>       0.49995000       0.32677000       0.81286000 </v>
    <v>       0.24995000       0.67323000       0.81286000 </v>
    <v>       0.75005000       0.32677000       0.56286000 </v>
    <v>       0.50005000       0.67323000       0.56286000 </v>
    <v>       0.99995000       0.32677000       0.81286000 </v>
    <v>       0.74995000       0.67323000       0.81286000 </v>
    <v>       0.49987000       0.07798000       0.06246000 </v>
    <v>       0.24987000       0.92202000       0.06246000 </v>
    <v>       0.25013000       0.07798000       0.31246000 </v>
    <v>       0.00013000       0.92202000       0.31246000 </v>
    <v>       0.99987000       0.07798000       0.06246000 </v>
    <v>       0.74987000       0.92202000       0.06246000 </v>
    <v>       0.75013000       0.07798000       0.31246000 </v>
    <v>       0.50013000       0.92202000       0.31246000 </v>
    <v>       0.49987000       0.07798000       0.56246000 </v>
    <v>       0.24987000       0.92202000       0.56246000 </v>
    <v>       0.25013000       0.07798000       0.81246000 </v>
    <v>       0.00013000       0.92202000       0.81246000 </v>
    <v>       0.99987000       0.07798000       0.56246000 </v>
    <v>       0.74987000       0.92202000       0.56246000 </v>
    <v>       0.75013000       0.07798000       0.81246000 </v>
    <v>       0.50013000       0.92202000       0.81246000 </v>
   </varray>
  </structure>
  <varray name="forces" >
   <v>      -0.42566061      -0.06771164      -0.11055653 </v>
   <v>      -0.40019779       0.00658766      -0.50939881 </v>
   <v>       0.42261105       0.06650531      -0.12346529 </v>
   <v>      -0.55107249       0.00295721      -0.29405423 </v>
   <v>      -0.30940605      -0.06211322       0.35972297 </v>
   <v>       0.16871895       0.06225096      -0.34263129 </v>
   <v>       1.14925728      -0.00728061       0.45131567 </v>
   <v>       0.13773891       0.10978559       0.26543248 </v>
   <v>       1.15713838       0.01415775      -0.38889820 </v>
   <v>      -0.19968291      -0.12228285       0.28883123 </v>
   <v>      -1.12548178       0.00100928       0.60174210 </v>
   <v>       0.25786602       1.02432182       0.09474620 </v>
   <v>       0.24017977       0.08951797       0.21916386 </v>
   <v>       0.25565900      -1.05697794       0.09873114 </v>
   <v>      -0.25753615       0.99111344      -0.16433359 </v>
   <v>      -0.06907326      -1.02851836       0.28718714 </v>
   <v>      -0.44346856      -0.05457838       0.17694213 </v>
   <v>      -0.20341251       0.05737704      -0.04691920 </v>
   <v>       0.23265457      -0.01806194       0.24238174 </v>
   <v>       0.27724179       0.06736362      -0.40625502 </v>
   <v>       0.18626904       1.02237439      -0.26352797 </v>
   <v>       0.18369009      -0.06664310      -0.06711379 </v>
   <v>      -0.16704985       0.05533990       0.02945217 </v>
   <v>      -0.41462350       0.03034983      -0.17858061 </v>
   <v>      -0.08268205      -1.08646580      -0.31823697 </v>
   <v>      -0.32637910       1.02537010       0.16790085 </v>
   <v>       0.33298887      -1.03951455       0.05448903 </v>
   <v>      -0.26744292       0.13466426      -0.15826251 </v>
   <v>      -0.10628354      -0.07293443      -0.14142606 </v>
   <v>       0.21568706       0.23165691       0.12977726 </v>
   <v>      -0.22298301      -0.18086196      -0.14139037 </v>
   <v>       0.30904087       0.08698000      -0.18291398 </v>
   <v>       0.05350906      -0.15388288      -0.19610298 </v>
   <v>      -0.15402538       0.13776784      -0.13639112 </v>
   <v>       0.16233733      -0.19745647       0.08918489 </v>
   <v>      -0.14055677       0.15185351       0.20782555 </v>
   <v>      -0.23106325      -0.09809712       0.21545801 </v>
   <v>       0.18842654       0.09374179      -0.11851073 </v>
   <v>      -0.17328717      -0.10076417       0.08013326 </v>
   <v>       0.02566914       0.10998038       0.19065217 </v>
   <v>       0.34928792      -0.15981691       0.19080781 </v>
   <v>      -0.18606217       0.02495330       0.05974040 </v>
   <v>       0.17325377      -0.01158049      -0.09534401 </v>
   <v>      -0.42329016       0.97719414      -0.58910819 </v>
   <v>      -0.16917408      -0.32644608      -0.11036115 </v>
   <v>      -0.64083068       1.01484382      -0.57437064 </v>
   <v>      -0.28803935      -0.00782856      -1.17848772 </v>
   <v>      -0.74229551      -0.69364290       0.43806806 </v>
   <v>       1.35044517       0.07617397      -0.05424352 </v>
   <v>       0.14968956      -0.03844972       0.07778150 </v>
   <v>       0.74378661      -0.86019576       0.66213529 </v>
   <v>       1.35665994       0.03698046       0.03161596 </v>
   <v>      -0.58517994      -0.97316540       0.62491665 </v>
   <v>      -0.15660486       0.27400802       0.01796630 </v>
   <v>      -0.82389177       0.76866181      -0.53652894 </v>
   <v>      -0.35631629      -0.06505126       1.24115027 </v>
   <v>      -0.37968501       0.86176334       0.64351722 </v>
   <v>       0.76976373      -0.78929827      -0.69667709 </v>
   <v>       0.17316802      -0.26798467      -0.11467883 </v>
  </varray>
  <varray name="stress" >
   <v>      -9.09226298      -0.46857711       0.03438166 </v>
   <v>      -0.46857713     -13.08237240      -0.15821974 </v>
   <v>       0.03438154      -0.15821986      -9.75163616 </v>
  </varray>
  <energy>
   <i name="e_fr_energy">   -301.99183397 </i>
   <i name="e_wo_entrp">   -301.99183397 </i>
   <i name="e_0_energy">      0.00000000 </i>
  </energy>
  <time name="totalsc"> 1439.79 1447.52</time>
  <eigenvalues>
   <array>
    <dimension dim="1">band</dimension>
    <dimension dim="2">kpoint</dimension>
    <dimension dim="3">spin</dimension>
    <field>eigene</field>
    <field>occ</field>
    <set>
     <set comment="spin 1">
      <set comment="kpoint 1">
       <r>  -40.6067    1.0000 </r>
       <r>  -40.1355    1.0000 </r>
       <r>  -40.0209    1.0000 </r>
       <r>  -39.8560    1.0000 </r>
       <r>  -39.4147    1.0000 </r>
       <r>  -39.1395    1.0000 </r>
       <r>  -19.0329    1.0000 </r>
       <r>  -19.0312    1.0000 </r>
       <r>  -18.9667    1.0000 </r>
       <r>  -18.9576    1.0000 </r>
       <r>  -18.9563    1.0000 </r>
       <r>  -18.9553    1.0000 </r>
       <r>  -18.9471    1.0000 </r>
       <r>  -18.9458    1.0000 </r>
       <r>  -18.8922    1.0000 </r>
       <r>  -18.8845    1.0000 </r>
       <r>  -18.8803    1.0000 </r>
       <r>  -18.8725    1.0000 </r>
       <r>  -18.8601    1.0000 </r>
       <r>  -18.8580    1.0000 </r>
       <r>  -18.8403    1.0000 </r>
       <r>  -18.8393    1.0000 </r>
       <r>  -18.7915    1.0000 </r>
       <r>  -18.7828    1.0000 </r>
       <r>  -18.7775    1.0000 </r>
       <r>  -18.7601    1.0000 </r>
       <r>  -18.7547    1.0000 </r>
       <r>  -18.7506    1.0000 </r>
       <r>  -18.7457    1.0000 </r>
       <r>  -18.7388    1.0000 </r>
       <r>  -18.7378    1.0000 </r>
       <r>  -18.7354    1.0000 </r>
       <r>  -18.6755    1.0000 </r>
       <r>  -18.6727    1.0000 </r>
       <r>  -18.6648    1.0000 </r>
       <r>  -18.6590    1.0000 </r>
       <r>  -18.6569    1.0000 </r>
       <r>  -18.6552    1.0000 </r>
       <r>  -18.6502    1.0000 </r>
       <r>  -18.6471    1.0000 </r>
       <r>  -18.6433    1.0000 </r>
       <r>  -18.6397    1.0000 </r>
       <r>  -18.6341    1.0000 </r>
       <r>  -18.6253    1.0000 </r>
       <r>  -18.6123    1.0000 </r>
       <r>  -18.6021    1.0000 </r>
       <r>  -18.6016    1.0000 </r>
       <r>  -18.5975    1.0000 </r>
       <r>  -18.5899    1.0000 </r>
       <r>  -18.5841    1.0000 </r>
       <r>  -18.5828    1.0000 </r>
       <r>  -18.5791    1.0000 </r>
       <r>  -18.5714    1.0000 </r>
       <r>  -18.5558    1.0000 </r>
       <r>  -18.5195    1.0000 </r>
       <r>  -18.5133    1.0000 </r>
       <r>  -18.5124    1.0000 </r>
       <r>  -18.5012    1.0000 </r>
       <r>  -18.4935    1.0000 </r>
       <r>  -18.4912    1.0000 </r>
       <r>  -18.4768    1.0000 </r>
       <r>  -18.4661    1.0000 </r>
       <r>  -18.4582    1.0000 </r>
       <r>  -18.4388    1.0000 </r>
       <r>  -18.4294    1.0000 </r>
       <r>  -18.4273    1.0000 </r>
       <r>  -18.4268    1.0000 </r>
       <r>  -18.4157    1.0000 </r>
       <r>  -18.4147    1.0000 </r>
       <r>  -18.3984    1.0000 </r>
       <r>  -18.3654    1.0000 </r>
       <r>  -18.3539    1.0000 </r>
       <r>  -18.3516    1.0000 </r>
       <r>  -18.3439    1.0000 </r>
       <r>  -18.3371    1.0000 </r>
       <r>  -18.3338    1.0000 </r>
       <r>  -18.2731    1.0000 </r>
       <r>  -18.2595    1.0000 </r>
       <r>  -18.2288    1.0000 </r>
       <r>  -18.2280    1.0000 </r>
       <r>  -18.2008    1.0000 </r>
       <r>  -18.2008    1.0000 </r>
       <r>  -18.1563    1.0000 </r>
       <r>  -18.1507    1.0000 </r>
       <r>  -18.1463    1.0000 </r>
       <r>  -18.1241    1.0000 </r>
       <r>  -13.7271    1.0000 </r>
       <r>  -13.6122    1.0000 </r>
       <r>  -13.5386    1.0000 </r>
       <r>  -13.5252    1.0000 </r>
       <r>  -12.8862    1.0000 </r>
       <r>  -12.8667    1.0000 </r>
       <r>  -12.7912    1.0000 </r>
       <r>  -12.7560    1.0000 </r>
       <r>  -12.6940    1.0000 </r>
       <r>  -12.6737    1.0000 </r>
       <r>  -12.6516    1.0000 </r>
       <r>  -12.5897    1.0000 </r>
       <r>  -12.0217    1.0000 </r>
       <r>  -12.0077    1.0000 </r>
       <r>  -11.9116    1.0000 </r>
       <r>  -11.8803    1.0000 </r>
       <r>   -9.3835    1.0000 </r>
       <r>   -9.0914    1.0000 </r>
       <r>   -8.5859    1.0000 </r>
       <r>   -8.5372    1.0000 </r>
       <r>   -8.5034    1.0000 </r>
       <r>   -8.5027    1.0000 </r>
       <r>   -8.3667    1.0000 </r>
       <r>   -8.3205    1.0000 </r>
       <r>   -8.2861    1.0000 </r>
       <r>   -8.2779    1.0000 </r>
       <r>   -8.0345    1.0000 </r>
       <r>   -8.0219    1.0000 </r>
       <r>   -8.0009    1.0000 </r>
       <r>   -7.9885    1.0000 </r>
       <r>   -7.3784    1.0000 </r>
       <r>   -7.3779    1.0000 </r>
       <r>   -6.4203    1.0000 </r>
       <r>   -6.4135    1.0000 </r>
       <r>   -6.3946    1.0000 </r>
       <r>   -6.3889    1.0000 </r>
       <r>   -5.6093    1.0000 </r>
       <r>   -5.5909    1.0000 </r>
       <r>   -5.3952    1.0000 </r>
       <r>   -5.3838    1.0000 </r>
       <r>   -5.3213    1.0000 </r>
       <r>   -5.2517    1.0000 </r>
       <r>   -5.1896    1.0000 </r>
       <r>   -5.1840    1.0000 </r>
       <r>   -5.1035    1.0000 </r>
       <r>   -5.0476    1.0000 </r>
       <r>   -3.8206    1.0000 </r>
       <r>   -3.6697    1.0000 </r>
       <r>   -1.5709    1.0000 </r>
       <r>   -1.3365    1.0000 </r>
       <r>   -1.1838    1.0000 </r>
       <r>   -1.0209    1.0000 </r>
       <r>   -0.6514    1.0000 </r>
       <r>   -0.5993    1.0000 </r>
       <r>   -0.5526    1.0000 </r>
       <r>   -0.5084    1.0000 </r>
       <r>   -0.2495    1.0000 </r>
       <r>   -0.2312    1.0000 </r>
       <r>   -0.2047    1.0000 </r>
       <r>   -0.1710    1.0000 </r>
       <r>   -0.0810    1.0000 </r>
       <r>   -0.0551    1.0000 </r>
       <r>    0.0752    1.0000 </r>
       <r>    0.1696    1.0000 </r>
       <r>    0.2676    1.0000 </r>
       <r>    0.3351    1.0000 </r>
       <r>    0.3826    1.0000 </r>
       <r>    0.5410    1.0000 </r>
       <r>    0.5754    1.0000 </r>
       <r>    0.6141    1.0000 </r>
       <r>    0.6524    1.0000 </r>
       <r>    0.7111    1.0000 </r>
       <r>    0.7268    1.0000 </r>
       <r>    0.7801    1.0000 </r>
       <r>    0.8195    1.0000 </r>
       <r>    0.8567    1.0000 </r>
       <r>    0.9258    1.0000 </r>
       <r>    0.9754    1.0000 </r>
       <r>    1.0033    1.0000 </r>
       <r>    1.0148    1.0000 </r>
       <r>    1.0515    1.0000 </r>
       <r>    1.0998    1.0000 </r>
       <r>    1.1301    1.0000 </r>
       <r>    1.2051    1.0000 </r>
       <r>    1.2381    1.0000 </r>
       <r>    1.3265    1.0000 </r>
       <r>    1.3568    1.0000 </r>
       <r>    1.4170    1.0000 </r>
       <r>    1.4362    1.0000 </r>
       <r>    1.4720    1.0000 </r>
       <r>    1.4921    1.0000 </r>
       <r>    1.5625    1.0000 </r>
       <r>    1.6532    1.0000 </r>
       <r>    1.6695    1.0000 </r>
       <r>    1.7240    1.0000 </r>
       <r>    1.7690    1.0000 </r>
       <r>    1.8300    1.0000 </r>
       <r>    1.9101    1.0000 </r>
       <r>    2.0219    1.0000 </r>
       <r>    2.0275    1.0000 </r>
       <r>    2.1134    1.0000 </r>
       <r>    2.1542    1.0000 </r>
       <r>    2.1789    1.0000 </r>
       <r>    2.2552    1.0000 </r>
       <r>    2.3421    1.0000 </r>
       <r>    2.3457    1.0000 </r>
       <r>    2.3692    1.0000 </r>
       <r>    2.4727    1.0000 </r>
       <r>    2.5205    1.0000 </r>
       <r>    2.5317    1.0000 </r>
       <r>    2.5375    1.0000 </r>
       <r>    2.5624    1.0000 </r>
       <r>    2.5817    1.0000 </r>
       <r>    2.5976    1.0000 </r>
       <r>    2.6613    1.0000 </r>
       <r>    2.6781    1.0000 </r>
       <r>    2.6947    1.0000 </r>
       <r>    2.7662    1.0000 </r>
       <r>    2.7834    1.0000 </r>
       <r>    2.8562    1.0000 </r>
       <r>    2.9119    1.0000 </r>
       <r>    2.9319    1.0000 </r>
       <r>    2.9570    1.0000 </r>
       <r>    3.0172    1.0000 </r>
       <r>    3.0831    1.0000 </r>
       <r>    3.0884    1.0000 </r>
       <r>    3.1125    1.0000 </r>
       <r>    3.1360    1.0000 </r>
       <r>    3.1707    1.0000 </r>
       <r>    3.1818    1.0000 </r>
       <r>    3.1933    1.0000 </r>
       <r>    3.2031    1.0000 </r>
       <r>    3.2553    1.0000 </r>
       <r>    3.2676    1.0000 </r>
       <r>    3.3534    1.0000 </r>
       <r>    3.4175    1.0000 </r>
       <r>    3.4291    1.0000 </r>
       <r>    3.5710    1.0000 </r>
       <r>    3.6882    1.0000 </r>
       <r>    3.7997    1.0000 </r>
       <r>    4.1663    1.0000 </r>
       <r>    4.1695    1.0000 </r>
       <r>    4.2248    1.0000 </r>
       <r>    4.2279    1.0000 </r>
       <r>    4.9704    0.0000 </r>
       <r>    4.9755    0.0000 </r>
       <r>    5.1574    0.0000 </r>
       <r>    5.1680    0.0000 </r>
       <r>    5.6777    0.0000 </r>
       <r>    5.6799    0.0000 </r>
       <r>    5.7764    0.0000 </r>
       <r>    5.7923    0.0000 </r>
       <r>    6.0985    0.0000 </r>
       <r>    6.1072    0.0000 </r>
       <r>    6.1378    0.0000 </r>
       <r>    6.1576    0.0000 </r>
       <r>    6.2243    0.0000 </r>
       <r>    6.2317    0.0000 </r>
       <r>    6.2559    0.0000 </r>
       <r>    6.2671    0.0000 </r>
       <r>    6.9552    0.0000 </r>
       <r>    6.9834    0.0000 </r>
       <r>    7.2287    0.0000 </r>
       <r>    7.2471    0.0000 </r>
       <r>    7.7508    0.0000 </r>
       <r>    7.7981    0.0000 </r>
       <r>    7.8063    0.0000 </r>
       <r>    7.9142    0.0000 </r>
       <r>    7.9304    0.0000 </r>
       <r>    7.9940    0.0000 </r>
       <r>    8.0562    0.0000 </r>
       <r>    8.1149    0.0000 </r>
       <r>    8.2987    0.0000 </r>
       <r>    8.6189    0.0000 </r>
       <r>    8.6739    0.0000 </r>
       <r>    8.7456    0.0000 </r>
       <r>    8.7992    0.0000 </r>
       <r>    8.8085    0.0000 </r>
       <r>    8.8491    0.0000 </r>
       <r>    8.9162    0.0000 </r>
       <r>    8.9893    0.0000 </r>
       <r>    9.0184    0.0000 </r>
       <r>    9.0292    0.0000 </r>
       <r>    9.0376    0.0000 </r>
       <r>    9.1159    0.0000 </r>
       <r>    9.1333    0.0000 </r>
       <r>    9.1945    0.0000 </r>
       <r>    9.2510    0.0000 </r>
       <r>    9.3661    0.0000 </r>
       <r>    9.4390    0.0000 </r>
       <r>    9.5052    0.0000 </r>
       <r>    9.5259    0.0000 </r>
       <r>    9.6547    0.0000 </r>
       <r>    9.7762    0.0000 </r>
      </set>
      <set comment="kpoint 2">
       <r>  -40.6067    1.0000 </r>
       <r>  -40.1355    1.0000 </r>
       <r>  -40.0209    1.0000 </r>
       <r>  -39.8560    1.0000 </r>
       <r>  -39.4147    1.0000 </r>
       <r>  -39.1395    1.0000 </r>
       <r>  -19.0329    1.0000 </r>
       <r>  -19.0312    1.0000 </r>
       <r>  -18.9667    1.0000 </r>
       <r>  -18.9575    1.0000 </r>
       <r>  -18.9563    1.0000 </r>
       <r>  -18.9553    1.0000 </r>
       <r>  -18.9471    1.0000 </r>
       <r>  -18.9458    1.0000 </r>
       <r>  -18.8922    1.0000 </r>
       <r>  -18.8845    1.0000 </r>
       <r>  -18.8803    1.0000 </r>
       <r>  -18.8725    1.0000 </r>
       <r>  -18.8601    1.0000 </r>
       <r>  -18.8580    1.0000 </r>
       <r>  -18.8403    1.0000 </r>
       <r>  -18.8393    1.0000 </r>
       <r>  -18.7915    1.0000 </r>
       <r>  -18.7828    1.0000 </r>
       <r>  -18.7775    1.0000 </r>
       <r>  -18.7601    1.0000 </r>
       <r>  -18.7546    1.0000 </r>
       <r>  -18.7506    1.0000 </r>
       <r>  -18.7456    1.0000 </r>
       <r>  -18.7387    1.0000 </r>
       <r>  -18.7378    1.0000 </r>
       <r>  -18.7354    1.0000 </r>
       <r>  -18.6756    1.0000 </r>
       <r>  -18.6728    1.0000 </r>
       <r>  -18.6650    1.0000 </r>
       <r>  -18.6595    1.0000 </r>
       <r>  -18.6573    1.0000 </r>
       <r>  -18.6553    1.0000 </r>
       <r>  -18.6497    1.0000 </r>
       <r>  -18.6470    1.0000 </r>
       <r>  -18.6428    1.0000 </r>
       <r>  -18.6395    1.0000 </r>
       <r>  -18.6340    1.0000 </r>
       <r>  -18.6253    1.0000 </r>
       <r>  -18.6123    1.0000 </r>
       <r>  -18.6021    1.0000 </r>
       <r>  -18.6016    1.0000 </r>
       <r>  -18.5975    1.0000 </r>
       <r>  -18.5900    1.0000 </r>
       <r>  -18.5841    1.0000 </r>
       <r>  -18.5829    1.0000 </r>
       <r>  -18.5790    1.0000 </r>
       <r>  -18.5714    1.0000 </r>
       <r>  -18.5558    1.0000 </r>
       <r>  -18.5195    1.0000 </r>
       <r>  -18.5133    1.0000 </r>
       <r>  -18.5124    1.0000 </r>
       <r>  -18.5012    1.0000 </r>
       <r>  -18.4935    1.0000 </r>
       <r>  -18.4912    1.0000 </r>
       <r>  -18.4768    1.0000 </r>
       <r>  -18.4661    1.0000 </r>
       <r>  -18.4582    1.0000 </r>
       <r>  -18.4388    1.0000 </r>
       <r>  -18.4294    1.0000 </r>
       <r>  -18.4273    1.0000 </r>
       <r>  -18.4269    1.0000 </r>
       <r>  -18.4157    1.0000 </r>
       <r>  -18.4147    1.0000 </r>
       <r>  -18.3984    1.0000 </r>
       <r>  -18.3654    1.0000 </r>
       <r>  -18.3539    1.0000 </r>
       <r>  -18.3516    1.0000 </r>
       <r>  -18.3439    1.0000 </r>
       <r>  -18.3371    1.0000 </r>
       <r>  -18.3338    1.0000 </r>
       <r>  -18.2731    1.0000 </r>
       <r>  -18.2595    1.0000 </r>
       <r>  -18.2288    1.0000 </r>
       <r>  -18.2280    1.0000 </r>
       <r>  -18.2008    1.0000 </r>
       <r>  -18.2008    1.0000 </r>
       <r>  -18.1563    1.0000 </r>
       <r>  -18.1507    1.0000 </r>
       <r>  -18.1463    1.0000 </r>
       <r>  -18.1241    1.0000 </r>
       <r>  -13.7262    1.0000 </r>
       <r>  -13.6132    1.0000 </r>
       <r>  -13.5385    1.0000 </r>
       <r>  -13.5252    1.0000 </r>
       <r>  -12.8858    1.0000 </r>
       <r>  -12.8682    1.0000 </r>
       <r>  -12.7897    1.0000 </r>
       <r>  -12.7560    1.0000 </r>
       <r>  -12.6888    1.0000 </r>
       <r>  -12.6796    1.0000 </r>
       <r>  -12.6520    1.0000 </r>
       <r>  -12.5890    1.0000 </r>
       <r>  -12.0215    1.0000 </r>
       <r>  -12.0078    1.0000 </r>
       <r>  -11.9123    1.0000 </r>
       <r>  -11.8795    1.0000 </r>
       <r>   -9.2600    1.0000 </r>
       <r>   -9.0411    1.0000 </r>
       <r>   -8.9874    1.0000 </r>
       <r>   -8.7644    1.0000 </r>
       <r>   -8.4584    1.0000 </r>
       <r>   -8.4475    1.0000 </r>
       <r>   -8.3115    1.0000 </r>
       <r>   -8.3005    1.0000 </r>
       <r>   -8.2115    1.0000 </r>
       <r>   -8.2016    1.0000 </r>
       <r>   -8.0641    1.0000 </r>
       <r>   -8.0573    1.0000 </r>
       <r>   -7.7946    1.0000 </r>
       <r>   -7.6850    1.0000 </r>
       <r>   -7.6324    1.0000 </r>
       <r>   -7.5226    1.0000 </r>
       <r>   -6.1038    1.0000 </r>
       <r>   -6.0857    1.0000 </r>
       <r>   -6.0145    1.0000 </r>
       <r>   -5.9755    1.0000 </r>
       <r>   -5.8156    1.0000 </r>
       <r>   -5.7696    1.0000 </r>
       <r>   -5.7160    1.0000 </r>
       <r>   -5.7042    1.0000 </r>
       <r>   -5.6636    1.0000 </r>
       <r>   -5.6282    1.0000 </r>
       <r>   -5.4757    1.0000 </r>
       <r>   -5.4243    1.0000 </r>
       <r>   -4.5507    1.0000 </r>
       <r>   -4.3922    1.0000 </r>
       <r>   -4.3295    1.0000 </r>
       <r>   -4.1587    1.0000 </r>
       <r>   -1.3518    1.0000 </r>
       <r>   -1.0927    1.0000 </r>
       <r>   -0.9754    1.0000 </r>
       <r>   -0.7350    1.0000 </r>
       <r>   -0.6278    1.0000 </r>
       <r>   -0.4039    1.0000 </r>
       <r>   -0.1751    1.0000 </r>
       <r>   -0.1362    1.0000 </r>
       <r>   -0.0584    1.0000 </r>
       <r>   -0.0562    1.0000 </r>
       <r>   -0.0188    1.0000 </r>
       <r>    0.0512    1.0000 </r>
       <r>    0.0833    1.0000 </r>
       <r>    0.1854    1.0000 </r>
       <r>    0.2179    1.0000 </r>
       <r>    0.3207    1.0000 </r>
       <r>    0.3685    1.0000 </r>
       <r>    0.4125    1.0000 </r>
       <r>    0.4292    1.0000 </r>
       <r>    0.5133    1.0000 </r>
       <r>    0.5702    1.0000 </r>
       <r>    0.5885    1.0000 </r>
       <r>    0.6053    1.0000 </r>
       <r>    0.6350    1.0000 </r>
       <r>    0.6727    1.0000 </r>
       <r>    0.6981    1.0000 </r>
       <r>    0.7702    1.0000 </r>
       <r>    0.7972    1.0000 </r>
       <r>    0.8846    1.0000 </r>
       <r>    0.9094    1.0000 </r>
       <r>    0.9803    1.0000 </r>
       <r>    1.0268    1.0000 </r>
       <r>    1.1004    1.0000 </r>
       <r>    1.1646    1.0000 </r>
       <r>    1.1966    1.0000 </r>
       <r>    1.2267    1.0000 </r>
       <r>    1.2588    1.0000 </r>
       <r>    1.2710    1.0000 </r>
       <r>    1.3112    1.0000 </r>
       <r>    1.3327    1.0000 </r>
       <r>    1.3829    1.0000 </r>
       <r>    1.4485    1.0000 </r>
       <r>    1.4694    1.0000 </r>
       <r>    1.5267    1.0000 </r>
       <r>    1.5533    1.0000 </r>
       <r>    1.5991    1.0000 </r>
       <r>    1.6608    1.0000 </r>
       <r>    1.6952    1.0000 </r>
       <r>    1.7133    1.0000 </r>
       <r>    1.7913    1.0000 </r>
       <r>    1.8453    1.0000 </r>
       <r>    1.9072    1.0000 </r>
       <r>    1.9743    1.0000 </r>
       <r>    2.0176    1.0000 </r>
       <r>    2.0539    1.0000 </r>
       <r>    2.0591    1.0000 </r>
       <r>    2.1553    1.0000 </r>
       <r>    2.1735    1.0000 </r>
       <r>    2.1910    1.0000 </r>
       <r>    2.2382    1.0000 </r>
       <r>    2.3084    1.0000 </r>
       <r>    2.3582    1.0000 </r>
       <r>    2.3838    1.0000 </r>
       <r>    2.4557    1.0000 </r>
       <r>    2.4633    1.0000 </r>
       <r>    2.5138    1.0000 </r>
       <r>    2.5381    1.0000 </r>
       <r>    2.5822    1.0000 </r>
       <r>    2.6065    1.0000 </r>
       <r>    2.6223    1.0000 </r>
       <r>    2.6438    1.0000 </r>
       <r>    2.7144    1.0000 </r>
       <r>    2.7603    1.0000 </r>
       <r>    2.7756    1.0000 </r>
       <r>    2.8401    1.0000 </r>
       <r>    2.8639    1.0000 </r>
       <r>    2.9182    1.0000 </r>
       <r>    2.9665    1.0000 </r>
       <r>    2.9883    1.0000 </r>
       <r>    3.0498    1.0000 </r>
       <r>    3.0929    1.0000 </r>
       <r>    3.1146    1.0000 </r>
       <r>    3.1623    1.0000 </r>
       <r>    3.1922    1.0000 </r>
       <r>    3.2544    1.0000 </r>
       <r>    3.3241    1.0000 </r>
       <r>    3.3548    1.0000 </r>
       <r>    3.3744    1.0000 </r>
       <r>    3.5181    1.0000 </r>
       <r>    3.5187    1.0000 </r>
       <r>    3.5784    1.0000 </r>
       <r>    3.6363    1.0000 </r>
       <r>    3.6512    1.0000 </r>
       <r>    3.7059    1.0000 </r>
       <r>    3.8282    1.0000 </r>
       <r>    3.9047    1.0000 </r>
       <r>    5.4809    0.0000 </r>
       <r>    5.5309    0.0000 </r>
       <r>    5.5537    0.0000 </r>
       <r>    5.6081    0.0000 </r>
       <r>    5.8160    0.0000 </r>
       <r>    5.8556    0.0000 </r>
       <r>    5.8824    0.0000 </r>
       <r>    5.9132    0.0000 </r>
       <r>    7.0543    0.0000 </r>
       <r>    7.0994    0.0000 </r>
       <r>    7.1738    0.0000 </r>
       <r>    7.2186    0.0000 </r>
       <r>    7.2548    0.0000 </r>
       <r>    7.3315    0.0000 </r>
       <r>    7.3543    0.0000 </r>
       <r>    7.4530    0.0000 </r>
       <r>    7.4682    0.0000 </r>
       <r>    7.5040    0.0000 </r>
       <r>    7.5539    0.0000 </r>
       <r>    7.6527    0.0000 </r>
       <r>    7.7574    0.0000 </r>
       <r>    7.7635    0.0000 </r>
       <r>    7.8314    0.0000 </r>
       <r>    7.8355    0.0000 </r>
       <r>    7.8717    0.0000 </r>
       <r>    7.8737    0.0000 </r>
       <r>    7.8966    0.0000 </r>
       <r>    7.9260    0.0000 </r>
       <r>    7.9753    0.0000 </r>
       <r>    7.9997    0.0000 </r>
       <r>    8.0110    0.0000 </r>
       <r>    8.0696    0.0000 </r>
       <r>    8.2232    0.0000 </r>
       <r>    8.2462    0.0000 </r>
       <r>    8.4577    0.0000 </r>
       <r>    8.4932    0.0000 </r>
       <r>    8.6111    0.0000 </r>
       <r>    8.7016    0.0000 </r>
       <r>    8.7178    0.0000 </r>
       <r>    8.7245    0.0000 </r>
       <r>    8.7444    0.0000 </r>
       <r>    8.8492    0.0000 </r>
       <r>    8.9154    0.0000 </r>
       <r>    8.9334    0.0000 </r>
       <r>    9.0324    0.0000 </r>
       <r>    9.1931    0.0000 </r>
       <r>    9.3020    0.0000 </r>
       <r>    9.3245    0.0000 </r>
       <r>    9.4947    0.0000 </r>
       <r>    9.6089    0.0000 </r>
      </set>
      <set comment="kpoint 3">
       <r>  -40.6067    1.0000 </r>
       <r>  -40.1355    1.0000 </r>
       <r>  -40.0209    1.0000 </r>
       <r>  -39.8560    1.0000 </r>
       <r>  -39.4147    1.0000 </r>
       <r>  -39.1395    1.0000 </r>
       <r>  -19.0332    1.0000 </r>
       <r>  -19.0309    1.0000 </r>
       <r>  -18.9667    1.0000 </r>
       <r>  -18.9576    1.0000 </r>
       <r>  -18.9563    1.0000 </r>
       <r>  -18.9554    1.0000 </r>
       <r>  -18.9471    1.0000 </r>
       <r>  -18.9458    1.0000 </r>
       <r>  -18.8922    1.0000 </r>
       <r>  -18.8845    1.0000 </r>
       <r>  -18.8803    1.0000 </r>
       <r>  -18.8725    1.0000 </r>
       <r>  -18.8601    1.0000 </r>
       <r>  -18.8580    1.0000 </r>
       <r>  -18.8403    1.0000 </r>
       <r>  -18.8393    1.0000 </r>
       <r>  -18.7915    1.0000 </r>
       <r>  -18.7828    1.0000 </r>
       <r>  -18.7775    1.0000 </r>
       <r>  -18.7601    1.0000 </r>
       <r>  -18.7547    1.0000 </r>
       <r>  -18.7506    1.0000 </r>
       <r>  -18.7457    1.0000 </r>
       <r>  -18.7388    1.0000 </r>
       <r>  -18.7378    1.0000 </r>
       <r>  -18.7354    1.0000 </r>
       <r>  -18.6754    1.0000 </r>
       <r>  -18.6727    1.0000 </r>
       <r>  -18.6649    1.0000 </r>
       <r>  -18.6591    1.0000 </r>
       <r>  -18.6569    1.0000 </r>
       <r>  -18.6552    1.0000 </r>
       <r>  -18.6502    1.0000 </r>
       <r>  -18.6472    1.0000 </r>
       <r>  -18.6432    1.0000 </r>
       <r>  -18.6397    1.0000 </r>
       <r>  -18.6340    1.0000 </r>
       <r>  -18.6254    1.0000 </r>
       <r>  -18.6123    1.0000 </r>
       <r>  -18.6021    1.0000 </r>
       <r>  -18.6016    1.0000 </r>
       <r>  -18.5975    1.0000 </r>
       <r>  -18.5899    1.0000 </r>
       <r>  -18.5841    1.0000 </r>
       <r>  -18.5828    1.0000 </r>
       <r>  -18.5791    1.0000 </r>
       <r>  -18.5714    1.0000 </r>
       <r>  -18.5558    1.0000 </r>
       <r>  -18.5195    1.0000 </r>
       <r>  -18.5133    1.0000 </r>
       <r>  -18.5124    1.0000 </r>
       <r>  -18.5012    1.0000 </r>
       <r>  -18.4935    1.0000 </r>
       <r>  -18.4912    1.0000 </r>
       <r>  -18.4768    1.0000 </r>
       <r>  -18.4661    1.0000 </r>
       <r>  -18.4582    1.0000 </r>
       <r>  -18.4388    1.0000 </r>
       <r>  -18.4294    1.0000 </r>
       <r>  -18.4273    1.0000 </r>
       <r>  -18.4268    1.0000 </r>
       <r>  -18.4157    1.0000 </r>
       <r>  -18.4147    1.0000 </r>
       <r>  -18.3984    1.0000 </r>
       <r>  -18.3654    1.0000 </r>
       <r>  -18.3539    1.0000 </r>
       <r>  -18.3516    1.0000 </r>
       <r>  -18.3439    1.0000 </r>
       <r>  -18.3371    1.0000 </r>
       <r>  -18.3338    1.0000 </r>
       <r>  -18.2731    1.0000 </r>
       <r>  -18.2595    1.0000 </r>
       <r>  -18.2288    1.0000 </r>
       <r>  -18.2280    1.0000 </r>
       <r>  -18.2008    1.0000 </r>
       <r>  -18.2008    1.0000 </r>
       <r>  -18.1563    1.0000 </r>
       <r>  -18.1507    1.0000 </r>
       <r>  -18.1463    1.0000 </r>
       <r>  -18.1241    1.0000 </r>
       <r>  -13.7268    1.0000 </r>
       <r>  -13.6123    1.0000 </r>
       <r>  -13.5388    1.0000 </r>
       <r>  -13.5252    1.0000 </r>
       <r>  -12.8858    1.0000 </r>
       <r>  -12.8667    1.0000 </r>
       <r>  -12.7905    1.0000 </r>
       <r>  -12.7560    1.0000 </r>
       <r>  -12.6944    1.0000 </r>
       <r>  -12.6741    1.0000 </r>
       <r>  -12.6521    1.0000 </r>
       <r>  -12.5899    1.0000 </r>
       <r>  -12.0208    1.0000 </r>
       <r>  -12.0083    1.0000 </r>
       <r>  -11.9116    1.0000 </r>
       <r>  -11.8820    1.0000 </r>
       <r>   -9.3739    1.0000 </r>
       <r>   -9.0978    1.0000 </r>
       <r>   -8.6043    1.0000 </r>
       <r>   -8.5542    1.0000 </r>
       <r>   -8.5202    1.0000 </r>
       <r>   -8.5196    1.0000 </r>
       <r>   -8.3466    1.0000 </r>
       <r>   -8.3032    1.0000 </r>
       <r>   -8.2677    1.0000 </r>
       <r>   -8.2588    1.0000 </r>
       <r>   -8.0381    1.0000 </r>
       <r>   -8.0247    1.0000 </r>
       <r>   -8.0037    1.0000 </r>
       <r>   -7.9908    1.0000 </r>
       <r>   -7.3816    1.0000 </r>
       <r>   -7.3803    1.0000 </r>
       <r>   -6.4102    1.0000 </r>
       <r>   -6.4036    1.0000 </r>
       <r>   -6.3867    1.0000 </r>
       <r>   -6.3783    1.0000 </r>
       <r>   -5.6196    1.0000 </r>
       <r>   -5.5853    1.0000 </r>
       <r>   -5.4330    1.0000 </r>
       <r>   -5.4215    1.0000 </r>
       <r>   -5.3493    1.0000 </r>
       <r>   -5.2651    1.0000 </r>
       <r>   -5.1429    1.0000 </r>
       <r>   -5.1347    1.0000 </r>
       <r>   -5.0657    1.0000 </r>
       <r>   -5.0027    1.0000 </r>
       <r>   -3.8951    1.0000 </r>
       <r>   -3.5834    1.0000 </r>
       <r>   -1.4337    1.0000 </r>
       <r>   -1.3706    1.0000 </r>
       <r>   -1.2906    1.0000 </r>
       <r>   -1.0822    1.0000 </r>
       <r>   -0.5344    1.0000 </r>
       <r>   -0.5073    1.0000 </r>
       <r>   -0.4812    1.0000 </r>
       <r>   -0.4421    1.0000 </r>
       <r>   -0.4316    1.0000 </r>
       <r>   -0.4097    1.0000 </r>
       <r>   -0.3644    1.0000 </r>
       <r>   -0.2998    1.0000 </r>
       <r>   -0.2603    1.0000 </r>
       <r>   -0.1656    1.0000 </r>
       <r>   -0.0812    1.0000 </r>
       <r>   -0.0099    1.0000 </r>
       <r>    0.1632    1.0000 </r>
       <r>    0.2028    1.0000 </r>
       <r>    0.3105    1.0000 </r>
       <r>    0.4114    1.0000 </r>
       <r>    0.4317    1.0000 </r>
       <r>    0.5291    1.0000 </r>
       <r>    0.6724    1.0000 </r>
       <r>    0.7032    1.0000 </r>
       <r>    0.7133    1.0000 </r>
       <r>    0.7443    1.0000 </r>
       <r>    0.7634    1.0000 </r>
       <r>    0.8235    1.0000 </r>
       <r>    0.8495    1.0000 </r>
       <r>    0.9472    1.0000 </r>
       <r>    0.9493    1.0000 </r>
       <r>    1.0605    1.0000 </r>
       <r>    1.1303    1.0000 </r>
       <r>    1.1835    1.0000 </r>
       <r>    1.2324    1.0000 </r>
       <r>    1.3153    1.0000 </r>
       <r>    1.3563    1.0000 </r>
       <r>    1.3831    1.0000 </r>
       <r>    1.4382    1.0000 </r>
       <r>    1.4805    1.0000 </r>
       <r>    1.5402    1.0000 </r>
       <r>    1.5648    1.0000 </r>
       <r>    1.6350    1.0000 </r>
       <r>    1.6706    1.0000 </r>
       <r>    1.7126    1.0000 </r>
       <r>    1.7969    1.0000 </r>
       <r>    1.8603    1.0000 </r>
       <r>    1.9412    1.0000 </r>
       <r>    1.9793    1.0000 </r>
       <r>    2.0524    1.0000 </r>
       <r>    2.0608    1.0000 </r>
       <r>    2.1587    1.0000 </r>
       <r>    2.1921    1.0000 </r>
       <r>    2.2597    1.0000 </r>
       <r>    2.2734    1.0000 </r>
       <r>    2.3620    1.0000 </r>
       <r>    2.3750    1.0000 </r>
       <r>    2.4254    1.0000 </r>
       <r>    2.4734    1.0000 </r>
       <r>    2.4966    1.0000 </r>
       <r>    2.5199    1.0000 </r>
       <r>    2.5297    1.0000 </r>
       <r>    2.5352    1.0000 </r>
       <r>    2.5474    1.0000 </r>
       <r>    2.5541    1.0000 </r>
       <r>    2.5772    1.0000 </r>
       <r>    2.5870    1.0000 </r>
       <r>    2.6464    1.0000 </r>
       <r>    2.7022    1.0000 </r>
       <r>    2.7552    1.0000 </r>
       <r>    2.8047    1.0000 </r>
       <r>    2.8352    1.0000 </r>
       <r>    2.8778    1.0000 </r>
       <r>    2.8936    1.0000 </r>
       <r>    2.9511    1.0000 </r>
       <r>    2.9908    1.0000 </r>
       <r>    3.0190    1.0000 </r>
       <r>    3.0319    1.0000 </r>
       <r>    3.0489    1.0000 </r>
       <r>    3.0776    1.0000 </r>
       <r>    3.1672    1.0000 </r>
       <r>    3.2541    1.0000 </r>
       <r>    3.3392    1.0000 </r>
       <r>    3.3475    1.0000 </r>
       <r>    3.3606    1.0000 </r>
       <r>    3.3975    1.0000 </r>
       <r>    3.4352    1.0000 </r>
       <r>    3.4796    1.0000 </r>
       <r>    3.4992    1.0000 </r>
       <r>    3.5650    1.0000 </r>
       <r>    3.6394    1.0000 </r>
       <r>    3.7509    1.0000 </r>
       <r>    4.2180    1.0000 </r>
       <r>    4.2216    1.0000 </r>
       <r>    4.2728    1.0000 </r>
       <r>    4.2821    1.0000 </r>
       <r>    5.0512    0.0000 </r>
       <r>    5.0542    0.0000 </r>
       <r>    5.2229    0.0000 </r>
       <r>    5.2250    0.0000 </r>
       <r>    5.6841    0.0000 </r>
       <r>    5.6909    0.0000 </r>
       <r>    5.7928    0.0000 </r>
       <r>    5.7958    0.0000 </r>
       <r>    6.1518    0.0000 </r>
       <r>    6.1565    0.0000 </r>
       <r>    6.1797    0.0000 </r>
       <r>    6.1990    0.0000 </r>
       <r>    6.2401    0.0000 </r>
       <r>    6.2479    0.0000 </r>
       <r>    6.2741    0.0000 </r>
       <r>    6.2859    0.0000 </r>
       <r>    6.6092    0.0000 </r>
       <r>    6.6834    0.0000 </r>
       <r>    6.8385    0.0000 </r>
       <r>    6.9897    0.0000 </r>
       <r>    7.1709    0.0000 </r>
       <r>    7.2547    0.0000 </r>
       <r>    7.3388    0.0000 </r>
       <r>    7.5200    0.0000 </r>
       <r>    7.7663    0.0000 </r>
       <r>    7.8183    0.0000 </r>
       <r>    7.8839    0.0000 </r>
       <r>    7.9129    0.0000 </r>
       <r>    8.0039    0.0000 </r>
       <r>    8.3683    0.0000 </r>
       <r>    8.3867    0.0000 </r>
       <r>    8.4138    0.0000 </r>
       <r>    8.5729    0.0000 </r>
       <r>    8.7320    0.0000 </r>
       <r>    8.8522    0.0000 </r>
       <r>    8.9344    0.0000 </r>
       <r>    8.9549    0.0000 </r>
       <r>    8.9805    0.0000 </r>
       <r>    9.0126    0.0000 </r>
       <r>    9.0509    0.0000 </r>
       <r>    9.0838    0.0000 </r>
       <r>    9.1202    0.0000 </r>
       <r>    9.1545    0.0000 </r>
       <r>    9.2131    0.0000 </r>
       <r>    9.4580    0.0000 </r>
       <r>    9.4781    0.0000 </r>
       <r>    9.6033    0.0000 </r>
       <r>    9.6996    0.0000 </r>
       <r>    9.7147    0.0000 </r>
       <r>    9.7406    0.0000 </r>
      </set>
      <set comment="kpoint 4">
       <r>  -40.6067    1.0000 </r>
       <r>  -40.1355    1.0000 </r>
       <r>  -40.0209    1.0000 </r>
       <r>  -39.8560    1.0000 </r>
       <r>  -39.4147    1.0000 </r>
       <r>  -39.1395    1.0000 </r>
       <r>  -19.0332    1.0000 </r>
       <r>  -19.0309    1.0000 </r>
       <r>  -18.9667    1.0000 </r>
       <r>  -18.9575    1.0000 </r>
       <r>  -18.9562    1.0000 </r>
       <r>  -18.9554    1.0000 </r>
       <r>  -18.9471    1.0000 </r>
       <r>  -18.9458    1.0000 </r>
       <r>  -18.8922    1.0000 </r>
       <r>  -18.8845    1.0000 </r>
       <r>  -18.8803    1.0000 </r>
       <r>  -18.8725    1.0000 </r>
       <r>  -18.8601    1.0000 </r>
       <r>  -18.8580    1.0000 </r>
       <r>  -18.8403    1.0000 </r>
       <r>  -18.8393    1.0000 </r>
       <r>  -18.7915    1.0000 </r>
       <r>  -18.7828    1.0000 </r>
       <r>  -18.7775    1.0000 </r>
       <r>  -18.7601    1.0000 </r>
       <r>  -18.7546    1.0000 </r>
       <r>  -18.7506    1.0000 </r>
       <r>  -18.7456    1.0000 </r>
       <r>  -18.7387    1.0000 </r>
       <r>  -18.7378    1.0000 </r>
       <r>  -18.7354    1.0000 </r>
       <r>  -18.6756    1.0000 </r>
       <r>  -18.6729    1.0000 </r>
       <r>  -18.6650    1.0000 </r>
       <r>  -18.6595    1.0000 </r>
       <r>  -18.6573    1.0000 </r>
       <r>  -18.6553    1.0000 </r>
       <r>  -18.6497    1.0000 </r>
       <r>  -18.6470    1.0000 </r>
       <r>  -18.6428    1.0000 </r>
       <r>  -18.6395    1.0000 </r>
       <r>  -18.6340    1.0000 </r>
       <r>  -18.6253    1.0000 </r>
       <r>  -18.6123    1.0000 </r>
       <r>  -18.6021    1.0000 </r>
       <r>  -18.6016    1.0000 </r>
       <r>  -18.5975    1.0000 </r>
       <r>  -18.5900    1.0000 </r>
       <r>  -18.5841    1.0000 </r>
       <r>  -18.5829    1.0000 </r>
       <r>  -18.5790    1.0000 </r>
       <r>  -18.5714    1.0000 </r>
       <r>  -18.5558    1.0000 </r>
       <r>  -18.5195    1.0000 </r>
       <r>  -18.5133    1.0000 </r>
       <r>  -18.5124    1.0000 </r>
       <r>  -18.5012    1.0000 </r>
       <r>  -18.4935    1.0000 </r>
       <r>  -18.4912    1.0000 </r>
       <r>  -18.4768    1.0000 </r>
       <r>  -18.4661    1.0000 </r>
       <r>  -18.4582    1.0000 </r>
       <r>  -18.4388    1.0000 </r>
       <r>  -18.4294    1.0000 </r>
       <r>  -18.4273    1.0000 </r>
       <r>  -18.4269    1.0000 </r>
       <r>  -18.4157    1.0000 </r>
       <r>  -18.4147    1.0000 </r>
       <r>  -18.3984    1.0000 </r>
       <r>  -18.3654    1.0000 </r>
       <r>  -18.3539    1.0000 </r>
       <r>  -18.3516    1.0000 </r>
       <r>  -18.3439    1.0000 </r>
       <r>  -18.3371    1.0000 </r>
       <r>  -18.3338    1.0000 </r>
       <r>  -18.2731    1.0000 </r>
       <r>  -18.2595    1.0000 </r>
       <r>  -18.2288    1.0000 </r>
       <r>  -18.2280    1.0000 </r>
       <r>  -18.2008    1.0000 </r>
       <r>  -18.2008    1.0000 </r>
       <r>  -18.1563    1.0000 </r>
       <r>  -18.1507    1.0000 </r>
       <r>  -18.1463    1.0000 </r>
       <r>  -18.1241    1.0000 </r>
       <r>  -13.7259    1.0000 </r>
       <r>  -13.6132    1.0000 </r>
       <r>  -13.5387    1.0000 </r>
[...]
       <r>    8.8162    0.0000 </r>
       <r>    8.8222    0.0000 </r>
       <r>    8.8694    0.0000 </r>
       <r>    8.8978    0.0000 </r>
       <r>    8.9183    0.0000 </r>
       <r>    8.9457    0.0000 </r>
       <r>    8.9620    0.0000 </r>
       <r>    9.4633    0.0000 </r>
       <r>    9.7190    0.0000 </r>
      </set>
     </set>
    </set>
   </array>
  </eigenvalues>
  <separator name="orbital magnetization" >
   <v name="MAGDIPOLOUT">      0.00000000      0.00000000      0.00000000</v>
  </separator>
  <dos>
   <i name="efermi">      4.30592033 </i>
   <total>
    <array>
     <dimension dim="1">gridpoints</dimension>
     <dimension dim="2">spin</dimension>
     <field>energy</field>
     <field>total</field>
     <field>integrated</field>
     <set>
      <set comment="spin 1">
       <r>   -43.1389     0.0000     0.0000 </r>
       <r>   -42.9532     0.0000     0.0000 </r>
       <r>   -42.7675     0.0000     0.0000 </r>
       <r>   -42.5818     0.0000     0.0000 </r>
       <r>   -42.3961     0.0000     0.0000 </r>
       <r>   -42.2104     0.0000     0.0000 </r>
       <r>   -42.0247     0.0000     0.0000 </r>
       <r>   -41.8390     0.0000     0.0000 </r>
       <r>   -41.6533     0.0000     0.0000 </r>
       <r>   -41.4676     0.0000     0.0000 </r>
       <r>   -41.2819     0.0000     0.0000 </r>
       <r>   -41.0962     0.0000     0.0000 </r>
       <r>   -40.9106     0.0000     0.0000 </r>
       <r>   -40.7249     0.0000     0.0000 </r>
       <r>   -40.5392     0.0000     2.0000 </r>
       <r>   -40.3535     0.0000     2.0000 </r>
       <r>   -40.1678     0.0000     2.0000 </r>
       <r>   -39.9821     0.0000     6.0000 </r>
       <r>   -39.7964     0.0000     8.0000 </r>
       <r>   -39.6107     0.0000     8.0000 </r>
       <r>   -39.4250     0.0000     8.0000 </r>
       <r>   -39.2393     0.0000    10.0000 </r>
       <r>   -39.0536     0.0000    12.0000 </r>
       <r>   -38.8679     0.0000    12.0000 </r>
       <r>   -38.6822     0.0000    12.0000 </r>
       <r>   -38.4965     0.0000    12.0000 </r>
       <r>   -38.3108     0.0000    12.0000 </r>
       <r>   -38.1251     0.0000    12.0000 </r>
       <r>   -37.9395     0.0000    12.0000 </r>
       <r>   -37.7538     0.0000    12.0000 </r>
       <r>   -37.5681     0.0000    12.0000 </r>
       <r>   -37.3824     0.0000    12.0000 </r>
       <r>   -37.1967     0.0000    12.0000 </r>
       <r>   -37.0110     0.0000    12.0000 </r>
       <r>   -36.8253     0.0000    12.0000 </r>
       <r>   -36.6396     0.0000    12.0000 </r>
       <r>   -36.4539     0.0000    12.0000 </r>
       <r>   -36.2682     0.0000    12.0000 </r>
       <r>   -36.0825     0.0000    12.0000 </r>
       <r>   -35.8968     0.0000    12.0000 </r>
       <r>   -35.7111     0.0000    12.0000 </r>
       <r>   -35.5254     0.0000    12.0000 </r>
       <r>   -35.3397     0.0000    12.0000 </r>
       <r>   -35.1540     0.0000    12.0000 </r>
       <r>   -34.9683     0.0000    12.0000 </r>
       <r>   -34.7827     0.0000    12.0000 </r>
       <r>   -34.5970     0.0000    12.0000 </r>
       <r>   -34.4113     0.0000    12.0000 </r>
       <r>   -34.2256     0.0000    12.0000 </r>
       <r>   -34.0399     0.0000    12.0000 </r>
       <r>   -33.8542     0.0000    12.0000 </r>
       <r>   -33.6685     0.0000    12.0000 </r>
       <r>   -33.4828     0.0000    12.0000 </r>
       <r>   -33.2971     0.0000    12.0000 </r>
       <r>   -33.1114     0.0000    12.0000 </r>
       <r>   -32.9257     0.0000    12.0000 </r>
       <r>   -32.7400     0.0000    12.0000 </r>
       <r>   -32.5543     0.0000    12.0000 </r>
       <r>   -32.3686     0.0000    12.0000 </r>
       <r>   -32.1829     0.0000    12.0000 </r>
       <r>   -31.9972     0.0000    12.0000 </r>
       <r>   -31.8116     0.0000    12.0000 </r>
       <r>   -31.6259     0.0000    12.0000 </r>
       <r>   -31.4402     0.0000    12.0000 </r>
       <r>   -31.2545     0.0000    12.0000 </r>
       <r>   -31.0688     0.0000    12.0000 </r>
       <r>   -30.8831     0.0000    12.0000 </r>
       <r>   -30.6974     0.0000    12.0000 </r>
       <r>   -30.5117     0.0000    12.0000 </r>
       <r>   -30.3260     0.0000    12.0000 </r>
       <r>   -30.1403     0.0000    12.0000 </r>
       <r>   -29.9546     0.0000    12.0000 </r>
       <r>   -29.7689     0.0000    12.0000 </r>
       <r>   -29.5832     0.0000    12.0000 </r>
       <r>   -29.3975     0.0000    12.0000 </r>
       <r>   -29.2118     0.0000    12.0000 </r>
       <r>   -29.0261     0.0000    12.0000 </r>
       <r>   -28.8404     0.0000    12.0000 </r>
       <r>   -28.6548     0.0000    12.0000 </r>
       <r>   -28.4691     0.0000    12.0000 </r>
       <r>   -28.2834     0.0000    12.0000 </r>
       <r>   -28.0977     0.0000    12.0000 </r>
       <r>   -27.9120     0.0000    12.0000 </r>
       <r>   -27.7263     0.0000    12.0000 </r>
       <r>   -27.5406     0.0000    12.0000 </r>
       <r>   -27.3549     0.0000    12.0000 </r>
       <r>   -27.1692     0.0000    12.0000 </r>
       <r>   -26.9835     0.0000    12.0000 </r>
       <r>   -26.7978     0.0000    12.0000 </r>
       <r>   -26.6121     0.0000    12.0000 </r>
       <r>   -26.4264     0.0000    12.0000 </r>
       <r>   -26.2407     0.0000    12.0000 </r>
       <r>   -26.0550     0.0000    12.0000 </r>
       <r>   -25.8693     0.0000    12.0000 </r>
       <r>   -25.6837     0.0000    12.0000 </r>
       <r>   -25.4980     0.0000    12.0000 </r>
       <r>   -25.3123     0.0000    12.0000 </r>
       <r>   -25.1266     0.0000    12.0000 </r>
       <r>   -24.9409     0.0000    12.0000 </r>
       <r>   -24.7552     0.0000    12.0000 </r>
       <r>   -24.5695     0.0000    12.0000 </r>
       <r>   -24.3838     0.0000    12.0000 </r>
       <r>   -24.1981     0.0000    12.0000 </r>
       <r>   -24.0124     0.0000    12.0000 </r>
       <r>   -23.8267     0.0000    12.0000 </r>
       <r>   -23.6410     0.0000    12.0000 </r>
       <r>   -23.4553     0.0000    12.0000 </r>
       <r>   -23.2696     0.0000    12.0000 </r>
       <r>   -23.0839     0.0000    12.0000 </r>
       <r>   -22.8982     0.0000    12.0000 </r>
       <r>   -22.7125     0.0000    12.0000 </r>
       <r>   -22.5269     0.0000    12.0000 </r>
       <r>   -22.3412     0.0000    12.0000 </r>
       <r>   -22.1555     0.0000    12.0000 </r>
       <r>   -21.9698     0.0000    12.0000 </r>
       <r>   -21.7841     0.0000    12.0000 </r>
       <r>   -21.5984     0.0000    12.0000 </r>
       <r>   -21.4127     0.0000    12.0000 </r>
       <r>   -21.2270     0.0000    12.0000 </r>
       <r>   -21.0413     0.0000    12.0000 </r>
       <r>   -20.8556     0.0000    12.0000 </r>
       <r>   -20.6699     0.0000    12.0000 </r>
       <r>   -20.4842     0.0000    12.0000 </r>
       <r>   -20.2985     0.0000    12.0000 </r>
       <r>   -20.1128     0.0000    12.0000 </r>
       <r>   -19.9271     0.0000    12.0000 </r>
       <r>   -19.7414     0.0000    12.0000 </r>
       <r>   -19.5558     0.0000    12.0000 </r>
       <r>   -19.3701     0.0000    12.0000 </r>
       <r>   -19.1844     0.0000    12.0000 </r>
       <r>   -18.9987     0.0000    16.0000 </r>
       <r>   -18.8130     0.0000    44.0000 </r>
       <r>   -18.6273     0.0000    86.0000 </r>
       <r>   -18.4416     0.0000   126.0000 </r>
       <r>   -18.2559     0.0000   156.0000 </r>
       <r>   -18.0702     0.0000   172.0000 </r>
       <r>   -17.8845     0.0000   172.0000 </r>
       <r>   -17.6988     0.0000   172.0000 </r>
       <r>   -17.5131     0.0000   172.0000 </r>
       <r>   -17.3274     0.0000   172.0000 </r>
       <r>   -17.1417     0.0000   172.0000 </r>
       <r>   -16.9560     0.0000   172.0000 </r>
       <r>   -16.7703     0.0000   172.0000 </r>
       <r>   -16.5846     0.0000   172.0000 </r>
       <r>   -16.3990     0.0000   172.0000 </r>
       <r>   -16.2133     0.0000   172.0000 </r>
       <r>   -16.0276     0.0000   172.0000 </r>
       <r>   -15.8419     0.0000   172.0000 </r>
       <r>   -15.6562     0.0000   172.0000 </r>
       <r>   -15.4705     0.0000   172.0000 </r>
       <r>   -15.2848     0.0000   172.0000 </r>
       <r>   -15.0991     0.0000   172.0000 </r>
       <r>   -14.9134     0.0000   172.0000 </r>
       <r>   -14.7277     0.0000   172.0000 </r>
       <r>   -14.5420     0.0000   172.0000 </r>
       <r>   -14.3563     0.0000   172.0000 </r>
       <r>   -14.1706     0.0000   172.0000 </r>
       <r>   -13.9849     0.0000   172.0000 </r>
       <r>   -13.7992     0.0000   172.0000 </r>
       <r>   -13.6135     0.0000   174.0000 </r>
       <r>   -13.4279     0.0000   180.0000 </r>
       <r>   -13.2422     0.0000   180.0000 </r>
       <r>   -13.0565     0.0000   180.0000 </r>
       <r>   -12.8708     0.0000   182.0000 </r>
       <r>   -12.6851     0.0000   190.0000 </r>
       <r>   -12.4994     0.0000   196.0000 </r>
       <r>   -12.3137     0.0000   196.0000 </r>
       <r>   -12.1280     0.0000   196.0000 </r>
       <r>   -11.9423     0.0000   200.0000 </r>
       <r>   -11.7566     0.0000   204.0000 </r>
       <r>   -11.5709     0.0000   204.0000 </r>
       <r>   -11.3852     0.0000   204.0000 </r>
       <r>   -11.1995     0.0000   204.0000 </r>
       <r>   -11.0138     0.0000   204.0000 </r>
       <r>   -10.8281     0.0000   204.0000 </r>
       <r>   -10.6424     0.0000   204.0000 </r>
       <r>   -10.4567     0.0000   204.0000 </r>
       <r>   -10.2711     0.0000   204.0000 </r>
       <r>   -10.0854     0.0000   204.0000 </r>
       <r>    -9.8997     0.0000   204.0000 </r>
       <r>    -9.7140     0.0000   204.0000 </r>
       <r>    -9.5283     0.0000   204.0000 </r>
       <r>    -9.3426     4.4079   204.0800 </r>
       <r>    -9.1569     4.1935   205.9286 </r>
       <r>    -8.9712     9.2830   208.0631 </r>
       <r>    -8.7855    17.5452   210.2416 </r>
       <r>    -8.5998    15.1145   212.7261 </r>
       <r>    -8.4141    14.4054   216.9910 </r>
       <r>    -8.2284    26.9911   220.6804 </r>
       <r>    -8.0427    52.1451   224.3031 </r>
       <r>    -7.8570    19.1984   228.6113 </r>
       <r>    -7.6713     7.0623   231.9887 </r>
       <r>    -7.4856    16.1274   235.1430 </r>
       <r>    -7.3000     0.0000   236.0000 </r>
       <r>    -7.1143     0.0000   236.0000 </r>
       <r>    -6.9286     0.0000   236.0000 </r>
       <r>    -6.7429     0.0000   236.0000 </r>
       <r>    -6.5572     0.0000   236.0000 </r>
       <r>    -6.3715     4.6782   236.0879 </r>
       <r>    -6.1858    26.5351   239.2585 </r>
       <r>    -6.0001    11.4308   243.4621 </r>
       <r>    -5.8144    17.9026   245.9642 </r>
       <r>    -5.6287    20.1495   250.5956 </r>
       <r>    -5.4430    18.5048   254.0203 </r>
       <r>    -5.2573    16.7176   257.8308 </r>
       <r>    -5.0716     3.6156   259.9023 </r>
       <r>    -4.8859     7.3343   260.7359 </r>
       <r>    -4.7002     9.0567   262.2752 </r>
       <r>    -4.5145     7.2057   263.9437 </r>
       <r>    -4.3288     6.5640   265.3359 </r>
       <r>    -4.1432     6.4743   266.5827 </r>
       <r>    -3.9575     3.4969   267.5255 </r>
       <r>    -3.7718     1.1221   267.9162 </r>
       <r>    -3.5861     0.0003   268.0000 </r>
       <r>    -3.4004     0.0000   268.0000 </r>
       <r>    -3.2147     0.0000   268.0000 </r>
       <r>    -3.0290     0.0000   268.0000 </r>
       <r>    -2.8433     0.0000   268.0000 </r>
       <r>    -2.6576     0.0000   268.0000 </r>
       <r>    -2.4719     0.0000   268.0000 </r>
       <r>    -2.2862     0.0000   268.0000 </r>
       <r>    -2.1005     0.0000   268.0000 </r>
       <r>    -1.9148     0.0000   268.0000 </r>
       <r>    -1.7291     0.0000   268.0000 </r>
       <r>    -1.5434     0.0904   268.0008 </r>
       <r>    -1.3577     4.8508   268.3709 </r>
       <r>    -1.1721    11.1871   269.8754 </r>
       <r>    -0.9864    12.6097   272.0423 </r>
       <r>    -0.8007     9.8600   274.1659 </r>
       <r>    -0.6150    11.9964   275.6043 </r>
       <r>    -0.4293    21.0103   278.7770 </r>
       <r>    -0.2436    30.0197   283.2244 </r>
       <r>    -0.0579    41.0129   290.3071 </r>
       <r>     0.1278    23.7734   295.8793 </r>
       <r>     0.3135    33.2851   302.0668 </r>
       <r>     0.4992    39.8663   308.7755 </r>
       <r>     0.6849    44.2790   315.9930 </r>
       <r>     0.8706    33.5319   324.4748 </r>
       <r>     1.0563    47.1125   332.1969 </r>
       <r>     1.2420    27.5162   339.6217 </r>
       <r>     1.4277    41.2006   349.0644 </r>
       <r>     1.6134    46.5275   357.5808 </r>
       <r>     1.7991    32.3251   365.2922 </r>
       <r>     1.9847    38.2790   371.8171 </r>
       <r>     2.1704    44.3713   379.9264 </r>
       <r>     2.3561    48.3279   388.7011 </r>
       <r>     2.5418    61.1002   400.0434 </r>
       <r>     2.7275    54.3978   410.3834 </r>
       <r>     2.9132    54.2589   420.9186 </r>
       <r>     3.0989    49.2598   431.0422 </r>
       <r>     3.2846    39.0062   439.6933 </r>
       <r>     3.4703    32.1402   446.5948 </r>
       <r>     3.6560    21.3903   451.9779 </r>
       <r>     3.8417    19.3282   455.4492 </r>
       <r>     4.0274    11.7575   458.7760 </r>
       <r>     4.2131     1.4312   459.9678 </r>
       <r>     4.3988     0.0000   460.0000 </r>
       <r>     4.5845     0.0000   460.0000 </r>
       <r>     4.7702     0.0000   460.0000 </r>
       <r>     4.9558     0.0000   460.0000 </r>
       <r>     5.1415     1.4619   460.0972 </r>
       <r>     5.3272     5.5332   460.6983 </r>
       <r>     5.5129    10.1645   462.1728 </r>
       <r>     5.6986    10.9821   463.9011 </r>
       <r>     5.8843    25.2729   467.4242 </r>
       <r>     6.0700    12.5706   470.2858 </r>
       <r>     6.2557    11.9268   472.4858 </r>
       <r>     6.4414    14.3822   474.9227 </r>
       <r>     6.6271    16.7486   477.8209 </r>
       <r>     6.8128    19.0931   481.1395 </r>
       <r>     6.9985    23.0954   485.0107 </r>
       <r>     7.1842    28.7781   489.8211 </r>
       <r>     7.3699    33.5237   495.6579 </r>
       <r>     7.5556    23.3503   501.4799 </r>
       <r>     7.7413    45.4155   507.3081 </r>
       <r>     7.9270    45.5999   516.6057 </r>
       <r>     8.1126    23.7894   522.6825 </r>
       <r>     8.2983    18.6072   526.5029 </r>
       <r>     8.4840    22.0055   530.1999 </r>
       <r>     8.6697    27.9086   534.8147 </r>
       <r>     8.8554    45.0683   541.6484 </r>
       <r>     9.0411    24.2567   548.3711 </r>
       <r>     9.2268    16.7056   551.9110 </r>
       <r>     9.4125    15.1631   554.8548 </r>
       <r>     9.5982    16.1147   557.4224 </r>
       <r>     9.7839     7.1064   559.4291 </r>
       <r>     9.9696     0.4565   559.9897 </r>
       <r>    10.1553     0.0000   560.0000 </r>
       <r>    10.3410     0.0000   560.0000 </r>
       <r>    10.5267     0.0000   560.0000 </r>
       <r>    10.7124     0.0000   560.0000 </r>
       <r>    10.8981     0.0000   560.0000 </r>
       <r>    11.0837     0.0000   560.0000 </r>
       <r>    11.2694     0.0000   560.0000 </r>
       <r>    11.4551     0.0000   560.0000 </r>
       <r>    11.6408     0.0000   560.0000 </r>
       <r>    11.8265     0.0000   560.0000 </r>
       <r>    12.0122     0.0000   560.0000 </r>
       <r>    12.1979     0.0000   560.0000 </r>
       <r>    12.3836     0.0000   560.0000 </r>
       <r>    12.5693     0.0000   560.0000 </r>
      </set>
     </set>
    </array>
   </total>
  </dos>
 </calculation>
 <structure name="finalpos" >
  <crystal>
   <varray name="basis" >
    <v>      11.17850000       0.00000000       0.00000000 </v>
    <v>       0.00000000       9.57460000       0.00000000 </v>
    <v>       0.00000000       0.00000000      11.18240000 </v>
   </varray>
   <i name="volume">   1196.84853820 </i>
   <varray name="rec_basis" >
    <v>       0.08945744       0.00000000       0.00000000 </v>
    <v>       0.00000000       0.10444301       0.00000000 </v>
    <v>       0.00000000       0.00000000       0.08942624 </v>
   </varray>
  </crystal>
  <varray name="positions" >
   <v>       0.37539000       0.00017000       0.43687000 </v>
   <v>       0.62539000       0.99984000       0.43687000 </v>
   <v>       0.87539000       0.00017000       0.43687000 </v>
   <v>       0.62461000       0.99984000       0.18687000 </v>
   <v>       0.87461000       0.00017000       0.18687000 </v>
   <v>       0.87461000       0.00017000       0.68687000 </v>
   <v>       0.12461000       0.99984000       0.18687000 </v>
   <v>       0.37539000       0.00017000       0.93687000 </v>
   <v>       0.12461000       0.99984000       0.68687000 </v>
   <v>       0.87539000       0.00017000       0.93687000 </v>
   <v>       0.62461000       0.99984000       0.68687000 </v>
   <v>       0.00013000       0.29519000       0.06281000 </v>
   <v>       0.25013000       0.70481000       0.06281000 </v>
   <v>       0.24987000       0.29519000       0.31282000 </v>
   <v>       0.49987000       0.70481000       0.31282000 </v>
   <v>       0.50013000       0.29519000       0.06281000 </v>
   <v>       0.75013000       0.70481000       0.06281000 </v>
   <v>       0.74987000       0.29519000       0.31282000 </v>
   <v>       0.99987000       0.70481000       0.31282000 </v>
   <v>       0.00013000       0.29519000       0.56281000 </v>
   <v>       0.25013000       0.70481000       0.56281000 </v>
   <v>       0.24987000       0.29519000       0.81282000 </v>
   <v>       0.49987000       0.70481000       0.81282000 </v>
   <v>       0.50013000       0.29519000       0.56281000 </v>
   <v>       0.75013000       0.70481000       0.56281000 </v>
   <v>       0.74987000       0.29519000       0.81282000 </v>
   <v>       0.99987000       0.70481000       0.81282000 </v>
   <v>       0.25005000       0.32677000       0.06286000 </v>
   <v>       0.00005000       0.67323000       0.06286000 </v>
   <v>       0.49995000       0.32677000       0.31286000 </v>
   <v>       0.24995000       0.67323000       0.31286000 </v>
   <v>       0.75005000       0.32677000       0.06286000 </v>
   <v>       0.50005000       0.67323000       0.06286000 </v>
   <v>       0.99995000       0.32677000       0.31286000 </v>
   <v>       0.74995000       0.67323000       0.31286000 </v>
   <v>       0.25005000       0.32677000       0.56286000 </v>
   <v>       0.00005000       0.67323000       0.56286000 </v>
   <v>       0.49995000       0.32677000       0.81286000 </v>
   <v>       0.24995000       0.67323000       0.81286000 </v>
   <v>       0.75005000       0.32677000       0.56286000 </v>
   <v>       0.50005000       0.67323000       0.56286000 </v>
   <v>       0.99995000       0.32677000       0.81286000 </v>
   <v>       0.74995000       0.67323000       0.81286000 </v>
   <v>       0.49987000       0.07798000       0.06246000 </v>
   <v>       0.24987000       0.92202000       0.06246000 </v>
   <v>       0.25013000       0.07798000       0.31246000 </v>
   <v>       0.00013000       0.92202000       0.31246000 </v>
   <v>       0.99987000       0.07798000       0.06246000 </v>
   <v>       0.74987000       0.92202000       0.06246000 </v>
   <v>       0.75013000       0.07798000       0.31246000 </v>
   <v>       0.50013000       0.92202000       0.31246000 </v>
   <v>       0.49987000       0.07798000       0.56246000 </v>
   <v>       0.24987000       0.92202000       0.56246000 </v>
   <v>       0.25013000       0.07798000       0.81246000 </v>
   <v>       0.00013000       0.92202000       0.81246000 </v>
   <v>       0.99987000       0.07798000       0.56246000 </v>
   <v>       0.74987000       0.92202000       0.56246000 </v>
   <v>       0.75013000       0.07798000       0.81246000 </v>
   <v>       0.50013000       0.92202000       0.81246000 </v>
  </varray>
 </structure>
</modeling>
