<?xml version="1.0" encoding="ISO-8859-1"?>
<modeling>
 <generator>
  <i name="program" type="string">vasp </i>
  <i name="version" type="string">5.4.4.18Apr17-6-g9f103f2a35  </i>
  <i name="subversion" type="string">(build Jul 31 2017 11:33:29) complex            parallel </i>
  <i name="platform" type="string">LinuxIFC </i>
  <i name="date" type="string">2021 09 29 </i>
  <i name="time" type="string">04:53:11 </i>
 </generator>
 <incar>
  <i type="string" name="SYSTEM"> La2O2S</i>
  <i type="string" name="PREC">normal</i>
  <i type="int" name="NELMIN">     4</i>
  <i type="int" name="IBRION">     2</i>
  <i type="int" name="NFREE">    10</i>
  <i name="EDIFF">      0.00000100</i>
  <i name="EDIFFG">     -0.01000000</i>
  <i type="int" name="NSW">     1</i>
  <i type="int" name="ISIF">     2</i>
  <i name="ENCUT">    600.00000000</i>
  <i name="ENAUG">    900.00000000</i>
  <i type="int" name="ISMEAR">    -5</i>
  <i type="logical" name="LWAVE"> F  </i>
  <i type="logical" name="LCHARG"> F  </i>
  <v type="int" name="KPOINT_BSE">    -1     0     0     0</v>
 </incar>
 <structure name="primitive_cell" >
  <crystal>
   <varray name="basis" >
    <v>      11.17850000       0.00000000       0.00000000 </v>
    <v>       0.00000000       9.57460000       0.00000000 </v>
    <v>       0.00000000       0.00000000      11.18240000 </v>
   </varray>
   <i name="volume">   1196.84853820 </i>
   <varray name="rec_basis" >
    <v>       0.08945744       0.00000000       0.00000000 </v>
    <v>       0.00000000       0.10444301       0.00000000 </v>
    <v>       0.00000000       0.00000000       0.08942624 </v>
   </varray>
  </crystal>
  <varray name="positions" >
   <v>       0.37539000       0.00017000       0.43687000 </v>
   <v>      -0.49987000      -0.07798000       0.31246000 </v>
   <v>       0.25013000       0.07798000       0.31246000 </v>
   <v>       0.49987000       0.07798000      -0.43754000 </v>
   <v>       0.24987000      -0.07798000      -0.43754000 </v>
   <v>      -0.37461000      -0.00016000       0.43687000 </v>
   <v>       0.37461000       0.00017000       0.18687000 </v>
   <v>       0.37461000       0.00017000      -0.31313000 </v>
   <v>       0.49987000      -0.29519000       0.31282000 </v>
   <v>       0.24987000       0.29519000       0.31282000 </v>
   <v>      -0.49987000       0.29519000      -0.43719000 </v>
   <v>       0.25013000      -0.29519000      -0.43719000 </v>
   <v>       0.49995000       0.32677000       0.31286000 </v>
   <v>       0.24995000      -0.32677000       0.31286000 </v>
   <v>      -0.49995000      -0.32677000      -0.43714000 </v>
   <v>       0.25005000       0.32677000      -0.43714000 </v>
   <v>      -0.37539000      -0.00016000       0.18687000 </v>
   <v>      -0.37539000      -0.00016000      -0.31313000 </v>
   <v>       0.12461000      -0.00016000       0.18687000 </v>
   <v>       0.12461000      -0.00016000      -0.31313000 </v>
   <v>       0.49987000       0.07798000       0.06246000 </v>
   <v>      -0.24987000       0.07798000       0.31246000 </v>
   <v>      -0.25013000      -0.07798000      -0.43754000 </v>
   <v>       0.24987000      -0.07798000       0.06246000 </v>
   <v>       0.00013000      -0.07798000       0.31246000 </v>
   <v>      -0.49987000      -0.07798000      -0.18754000 </v>
   <v>      -0.00013000       0.07798000      -0.43754000 </v>
   <v>       0.25013000       0.07798000      -0.18754000 </v>
   <v>      -0.49987000       0.29519000       0.06281000 </v>
   <v>      -0.25013000       0.29519000       0.31282000 </v>
   <v>       0.25013000      -0.29519000       0.06281000 </v>
   <v>      -0.24987000      -0.29519000      -0.43719000 </v>
   <v>      -0.00013000      -0.29519000       0.31282000 </v>
   <v>       0.00013000       0.29519000      -0.43719000 </v>
   <v>       0.49987000      -0.29519000      -0.18718000 </v>
   <v>       0.24987000       0.29519000      -0.18718000 </v>
   <v>      -0.49995000      -0.32677000       0.06286000 </v>
   <v>       0.25005000       0.32677000       0.06286000 </v>
   <v>      -0.25005000      -0.32677000       0.31286000 </v>
   <v>      -0.24995000       0.32677000      -0.43714000 </v>
   <v>      -0.00005000       0.32677000       0.31286000 </v>
   <v>       0.00005000      -0.32677000      -0.43714000 </v>
   <v>       0.49995000       0.32677000      -0.18714000 </v>
   <v>       0.24995000      -0.32677000      -0.18714000 </v>
   <v>      -0.12461000       0.00017000       0.43687000 </v>
   <v>      -0.25013000      -0.07798000       0.06246000 </v>
   <v>      -0.00013000       0.07798000       0.06246000 </v>
   <v>      -0.24987000       0.07798000      -0.18754000 </v>
   <v>       0.00013000      -0.07798000      -0.18754000 </v>
   <v>      -0.12539000       0.00017000       0.18687000 </v>
   <v>      -0.12539000       0.00017000      -0.31313000 </v>
   <v>      -0.37461000      -0.00016000      -0.06313000 </v>
   <v>       0.12539000      -0.00016000      -0.06313000 </v>
   <v>      -0.24987000      -0.29519000       0.06281000 </v>
   <v>       0.00013000       0.29519000       0.06281000 </v>
   <v>      -0.25013000       0.29519000      -0.18718000 </v>
   <v>      -0.00013000      -0.29519000      -0.18718000 </v>
   <v>      -0.24995000       0.32677000       0.06286000 </v>
   <v>       0.00005000      -0.32677000       0.06286000 </v>
   <v>      -0.25005000      -0.32677000      -0.18714000 </v>
   <v>      -0.00005000       0.32677000      -0.18714000 </v>
   <v>      -0.12461000       0.00017000      -0.06313000 </v>
  </varray>
 </structure>
 <varray name="primitive_index" >
  <v type="int" >        1 </v>
  <v type="int" >       54 </v>
  <v type="int" >       49 </v>
  <v type="int" >       55 </v>
  <v type="int" >       56 </v>
  <v type="int" >        4 </v>
  <v type="int" >        3 </v>
  <v type="int" >       14 </v>
  <v type="int" >       18 </v>
  <v type="int" >       17 </v>
  <v type="int" >       27 </v>
  <v type="int" >       24 </v>
  <v type="int" >       33 </v>
  <v type="int" >       34 </v>
  <v type="int" >       44 </v>
  <v type="int" >       39 </v>
  <v type="int" >        6 </v>
  <v type="int" >       11 </v>
  <v type="int" >        2 </v>
  <v type="int" >        8 </v>
  <v type="int" >       47 </v>
  <v type="int" >       53 </v>
  <v type="int" >       60 </v>
  <v type="int" >       48 </v>
  <v type="int" >       50 </v>
  <v type="int" >       62 </v>
  <v type="int" >       59 </v>
  <v type="int" >       57 </v>
  <v type="int" >       19 </v>
  <v type="int" >       21 </v>
  <v type="int" >       16 </v>
  <v type="int" >       28 </v>
  <v type="int" >       22 </v>
  <v type="int" >       23 </v>
  <v type="int" >       26 </v>
  <v type="int" >       25 </v>
  <v type="int" >       36 </v>
  <v type="int" >       31 </v>
  <v type="int" >       38 </v>
  <v type="int" >       43 </v>
  <v type="int" >       37 </v>
  <v type="int" >       40 </v>
  <v type="int" >       41 </v>
  <v type="int" >       42 </v>
  <v type="int" >        5 </v>
  <v type="int" >       52 </v>
  <v type="int" >       51 </v>
  <v type="int" >       61 </v>
  <v type="int" >       58 </v>
  <v type="int" >        7 </v>
  <v type="int" >       12 </v>
  <v type="int" >        9 </v>
  <v type="int" >       13 </v>
  <v type="int" >       20 </v>
  <v type="int" >       15 </v>
  <v type="int" >       29 </v>
  <v type="int" >       30 </v>
  <v type="int" >       35 </v>
  <v type="int" >       32 </v>
  <v type="int" >       46 </v>
  <v type="int" >       45 </v>
  <v type="int" >       10 </v>
 </varray>
 <kpoints>
  <generation param="Gamma">
   <v type="int" name="divisions">       2        2        2 </v>
   <v name="usershift">      0.00000000       0.00000000       0.00000000 </v>
   <v name="genvec1">      0.50000000       0.00000000       0.00000000 </v>
   <v name="genvec2">      0.00000000       0.50000000       0.00000000 </v>
   <v name="genvec3">      0.00000000       0.00000000       0.50000000 </v>
   <v name="shift">      0.00000000       0.00000000       0.00000000 </v>
  </generation>
  <varray name="kpointlist" >
   <v>       0.00000000       0.00000000       0.00000000 </v>
   <v>       0.50000000       0.00000000       0.00000000 </v>
   <v>       0.00000000       0.50000000       0.00000000 </v>
   <v>       0.50000000       0.50000000       0.00000000 </v>
   <v>       0.00000000       0.00000000       0.50000000 </v>
   <v>       0.50000000       0.00000000       0.50000000 </v>
   <v>       0.00000000       0.50000000       0.50000000 </v>
   <v>       0.50000000       0.50000000       0.50000000 </v>
  </varray>
  <varray name="weights" >
   <v>       0.12500000 </v>
   <v>       0.12500000 </v>
   <v>       0.12500000 </v>
   <v>       0.12500000 </v>
   <v>       0.12500000 </v>
   <v>       0.12500000 </v>
   <v>       0.12500000 </v>
   <v>       0.12500000 </v>
  </varray>
  <varray name="tetrahedronlist"  type="int" >
   <v type="int" >        2        1        2        4        5 </v>
   <v type="int" >        2        1        3        4        5 </v>
   <v type="int" >        2        3        4        5        7 </v>
   <v type="int" >        2        2        4        5        6 </v>
   <v type="int" >        2        4        5        6        8 </v>
   <v type="int" >        2        4        5        7        8 </v>
   <v type="int" >        2        1        2        3        6 </v>
   <v type="int" >        2        2        3        4        6 </v>
   <v type="int" >        2        3        4        6        8 </v>
   <v type="int" >        2        1        3        5        6 </v>
   <v type="int" >        2        3        5        6        7 </v>
   <v type="int" >        2        3        6        7        8 </v>
   <v type="int" >        2        2        3        4        7 </v>
   <v type="int" >        2        1        2        3        7 </v>
   <v type="int" >        2        1        2        5        7 </v>
   <v type="int" >        2        2        4        7        8 </v>
   <v type="int" >        2        2        6        7        8 </v>
   <v type="int" >        2        2        5        6        7 </v>
   <v type="int" >        2        1        3        4        8 </v>
   <v type="int" >        2        1        2        4        8 </v>
   <v type="int" >        2        1        2        6        8 </v>
   <v type="int" >        2        1        3        7        8 </v>
   <v type="int" >        2        1        5        7        8 </v>
   <v type="int" >        2        1        5        6        8 </v>
  </varray>
  <i name="volumeweight">      0.02083333 </i>
 </kpoints>
 <parameters>
  <separator name="general" >
   <i type="string" name="SYSTEM">La2O2S</i>
   <i type="logical" name="LCOMPAT"> F  </i>
  </separator>
  <separator name="electronic" >
   <i type="string" name="PREC">normal</i>
   <i name="ENMAX">    600.00000000</i>
   <i name="ENAUG">    900.00000000</i>
   <i name="EDIFF">      0.00000100</i>
   <i type="int" name="IALGO">    38</i>
   <i type="int" name="IWAVPR">    11</i>
   <i type="int" name="NBANDS">   308</i>
   <i name="NELECT">    472.00000000</i>
   <i type="int" name="TURBO">     0</i>
   <i type="int" name="IRESTART">     0</i>
   <i type="int" name="NREBOOT">     0</i>
   <i type="int" name="NMIN">     0</i>
   <i name="EREF">      0.00000000</i>
   <separator name="electronic smearing" >
    <i type="int" name="ISMEAR">    -5</i>
    <i name="SIGMA">      0.20000000</i>
    <i name="KSPACING">      0.50000000</i>
    <i type="logical" name="KGAMMA"> T  </i>
   </separator>
   <separator name="electronic projectors" >
    <i type="logical" name="LREAL"> F  </i>
    <v name="ROPT">      0.00000000      0.00000000      0.00000000      0.00000000      0.00000000</v>
    <i type="int" name="LMAXPAW">  -100</i>
    <i type="int" name="LMAXMIX">     2</i>
    <i type="logical" name="NLSPLINE"> F  </i>
   </separator>
   <separator name="electronic startup" >
    <i type="int" name="ISTART">     0</i>
    <i type="int" name="ICHARG">     2</i>
    <i type="int" name="INIWAV">     1</i>
   </separator>
   <separator name="electronic spin" >
    <i type="int" name="ISPIN">     1</i>
    <i type="logical" name="LNONCOLLINEAR"> F  </i>
    <v name="MAGMOM">      1.00000000      1.00000000      1.00000000      1.00000000      1.00000000      1.00000000      1.00000000      1.00000000      1.00000000      1.00000000      1.00000000      1.00000000      1.00000000      1.00000000      1.00000000      1.00000000      1.00000000      1.00000000      1.00000000      1.00000000
      1.00000000      1.00000000      1.00000000      1.00000000      1.00000000      1.00000000      1.00000000      1.00000000      1.00000000      1.00000000      1.00000000      1.00000000      1.00000000      1.00000000      1.00000000      1.00000000      1.00000000      1.00000000      1.00000000      1.00000000
      1.00000000      1.00000000      1.00000000      1.00000000      1.00000000      1.00000000      1.00000000      1.00000000      1.00000000      1.00000000      1.00000000      1.00000000      1.00000000      1.00000000      1.00000000      1.00000000      1.00000000      1.00000000      1.00000000      1.00000000
      1.00000000      1.00000000</v>
    <i name="NUPDOWN">     -1.00000000</i>
    <i type="logical" name="LSORBIT"> F  </i>
    <v name="SAXIS">      0.00000000      0.00000000      1.00000000</v>
    <i type="logical" name="LSPIRAL"> F  </i>
    <v name="QSPIRAL">      0.00000000      0.00000000      0.00000000</v>
    <i type="logical" name="LZEROZ"> F  </i>
   </separator>
   <separator name="electronic exchange-correlation" >
    <i type="logical" name="LASPH"> F  </i>
    <i type="logical" name="LMETAGGA"> F  </i>
   </separator>
   <separator name="electronic convergence" >
    <i type="int" name="NELM">    60</i>
    <i type="int" name="NELMDL">    -5</i>
    <i type="int" name="NELMIN">     4</i>
    <i name="ENINI">    600.00000000</i>
    <separator name="electronic convergence detail" >
     <i type="logical" name="LDIAG"> T  </i>
     <i type="logical" name="LSUBROT"> F  </i>
     <i name="WEIMIN">      0.00100000</i>
     <i name="EBREAK">      0.00000000</i>
     <i name="DEPER">      0.30000000</i>
     <i type="int" name="NRMM">     4</i>
     <i name="TIME">      0.40000000</i>
    </separator>
   </separator>
   <separator name="electronic mixer" >
    <i name="AMIX">      0.40000000</i>
    <i name="BMIX">      1.00000000</i>
    <i name="AMIN">      0.10000000</i>
    <i name="AMIX_MAG">      1.60000000</i>
    <i name="BMIX_MAG">      1.00000000</i>
    <separator name="electronic mixer details" >
     <i type="int" name="IMIX">     4</i>
     <i type="logical" name="MIXFIRST"> F  </i>
     <i type="int" name="MAXMIX">   -45</i>
     <i name="WC">    100.00000000</i>
     <i type="int" name="INIMIX">     1</i>
     <i type="int" name="MIXPRE">     1</i>
     <i type="int" name="MREMOVE">     5</i>
    </separator>
   </separator>
   <separator name="electronic dipolcorrection" >
    <i type="logical" name="LDIPOL"> F  </i>
    <i type="logical" name="LMONO"> F  </i>
    <i type="int" name="IDIPOL">     0</i>
    <i name="EPSILON">      1.00000000</i>
    <v name="DIPOL">   -100.00000000   -100.00000000   -100.00000000</v>
    <i name="EFIELD">      0.00000000</i>
   </separator>
  </separator>
  <separator name="grids" >
   <i type="int" name="NGX">    70</i>
   <i type="int" name="NGY">    60</i>
   <i type="int" name="NGZ">    70</i>
   <i type="int" name="NGXF">   140</i>
   <i type="int" name="NGYF">   120</i>
   <i type="int" name="NGZF">   140</i>
   <i type="logical" name="ADDGRID"> F  </i>
  </separator>
  <separator name="ionic" >
   <i type="int" name="NSW">     1</i>
   <i type="int" name="IBRION">     2</i>
   <i type="int" name="MDALGO">     0</i>
   <i type="int" name="ISIF">     2</i>
   <i name="PSTRESS">      0.00000000</i>
   <i name="EDIFFG">     -0.01000000</i>
   <i type="int" name="NFREE">    10</i>
   <i name="POTIM">      0.50000000</i>
   <i name="SMASS">     -3.00000000</i>
   <i name="SCALEE">      1.00000000</i>
  </separator>
  <separator name="ionic md" >
   <i name="TEBEG">      0.00010000</i>
   <i name="TEEND">      0.00010000</i>
   <i type="int" name="NBLOCK">     1</i>
   <i type="int" name="KBLOCK">     1</i>
   <i type="int" name="NPACO">   256</i>
   <i name="APACO">     16.00000000</i>
  </separator>
  <separator name="symmetry" >
   <i type="int" name="ISYM">     2</i>
   <i name="SYMPREC">      0.00001000</i>
  </separator>
  <separator name="dos" >
   <i type="int" name="LORBIT">     0</i>
   <v name="RWIGS">     -1.00000000     -1.00000000     -1.00000000     -1.00000000     -1.00000000</v>
   <i type="int" name="NEDOS">   301</i>
   <i name="EMIN">     10.00000000</i>
   <i name="EMAX">    -10.00000000</i>
   <i name="EFERMI">      0.00000000</i>
  </separator>
  <separator name="writing" >
   <i type="int" name="NWRITE">     2</i>
   <i type="logical" name="LWAVE"> F  </i>
   <i type="logical" name="LDOWNSAMPLE"> F  </i>
   <i type="logical" name="LCHARG"> F  </i>
   <i type="logical" name="LPARD"> F  </i>
   <i type="logical" name="LVTOT"> F  </i>
   <i type="logical" name="LVHAR"> F  </i>
   <i type="logical" name="LELF"> F  </i>
   <i type="logical" name="LOPTICS"> F  </i>
   <v name="STM">      0.00000000      0.00000000      0.00000000      0.00000000      0.00000000      0.00000000      0.00000000</v>
  </separator>
  <separator name="performance" >
   <i type="int" name="NPAR">    28</i>
   <i type="int" name="NSIM">     4</i>
   <i type="int" name="NBLK">    -1</i>
   <i type="logical" name="LPLANE"> T  </i>
   <i type="logical" name="LSCALAPACK"> T  </i>
   <i type="logical" name="LSCAAWARE"> F  </i>
   <i type="logical" name="LSCALU"> F  </i>
   <i type="logical" name="LASYNC"> F  </i>
   <i type="logical" name="LORBITALREAL"> F  </i>
  </separator>
  <separator name="miscellaneous" >
   <i type="int" name="IDIOT">     3</i>
   <i type="int" name="ISPECIAL">     0</i>
   <i type="logical" name="LMUSIC"> F  </i>
   <v name="POMASS">      7.01000000     24.30500000    208.98000000     32.06600000     16.00000000</v>
   <v name="DARWINR">      0.00000000      0.00000000      0.00000000      0.00000000      0.00000000</v>
   <v name="DARWINV">      1.00000000      1.00000000      1.00000000      1.00000000      1.00000000</v>
   <i type="logical" name="LCORR"> T  </i>
  </separator>
  <i type="logical" name="GGA_COMPAT"> T  </i>
  <i type="logical" name="LBERRY"> F  </i>
  <i type="int" name="ICORELEVEL">     0</i>
  <i type="logical" name="LDAU"> F  </i>
  <i type="int" name="I_CONSTRAINED_M">     0</i>
  <separator name="electronic exchange-correlation" >
   <i type="string" name="GGA">--</i>
   <i type="int" name="VOSKOWN">     0</i>
   <i type="logical" name="LHFCALC"> F  </i>
   <i type="string" name="PRECFOCK"></i>
   <i type="logical" name="LSYMGRAD"> F  </i>
   <i type="logical" name="LHFONE"> F  </i>
   <i type="logical" name="LRHFCALC"> F  </i>
   <i type="logical" name="LTHOMAS"> F  </i>
   <i type="logical" name="LMODELHF"> F  </i>
   <i name="ENCUT4O">     -1.00000000</i>
   <i type="int" name="EXXOEP">     0</i>
   <i type="int" name="FOURORBIT">     0</i>
   <i name="AEXX">      0.00000000</i>
   <i name="HFALPHA">      0.00000000</i>
   <i name="MCALPHA">      0.00000000</i>
   <i name="ALDAX">      1.00000000</i>
   <i name="AGGAX">      1.00000000</i>
   <i name="ALDAC">      1.00000000</i>
   <i name="AGGAC">      1.00000000</i>
   <i type="int" name="NKREDX">     1</i>
   <i type="int" name="NKREDY">     1</i>
   <i type="int" name="NKREDZ">     1</i>
   <i type="logical" name="SHIFTRED"> F  </i>
   <i type="logical" name="ODDONLY"> F  </i>
   <i type="logical" name="EVENONLY"> F  </i>
   <i type="int" name="LMAXFOCK">     0</i>
   <i type="int" name="NMAXFOCKAE">     0</i>
   <i type="logical" name="LFOCKAEDFT"> F  </i>
   <i name="HFSCREEN">      0.00000000</i>
   <i name="HFSCREENC">      0.00000000</i>
   <i type="int" name="NBANDSGWLOW">     0</i>
  </separator>
  <separator name="vdW DFT" >
   <i type="logical" name="LUSE_VDW"> F  </i>
   <i name="Zab_VDW">     -0.84910000</i>
   <i name="PARAM1">      0.12340000</i>
   <i name="PARAM2">      1.00000000</i>
   <i name="PARAM3">      0.00000000</i>
  </separator>
  <separator name="model GW" >
   <i type="int" name="MODEL_GW">     0</i>
   <i name="MODEL_EPS0">     11.58240521</i>
   <i name="MODEL_ALPHA">      1.00000000</i>
  </separator>
  <separator name="linear response parameters" >
   <i type="logical" name="LEPSILON"> F  </i>
   <i type="logical" name="LRPA"> F  </i>
   <i type="logical" name="LNABLA"> F  </i>
   <i type="logical" name="LVEL"> F  </i>
   <i type="int" name="KINTER">     0</i>
   <i name="CSHIFT">      0.10000000</i>
   <i name="OMEGAMAX">     -1.00000000</i>
   <i name="DEG_THRESHOLD">      0.00200000</i>
   <i name="RTIME">     -0.10000000</i>
   <i name="WPLASMAI">      0.00000000</i>
   <v name="DFIELD">      0.00000000      0.00000000      0.00000000</v>
   <v name="WPLASMA">      0.00000000      0.00000000      0.00000000      0.00000000      0.00000000      0.00000000      0.00000000      0.00000000      0.00000000</v>
  </separator>
  <separator name="orbital magnetization" >
   <i type="logical" name="NUCIND"> F  </i>
   <v name="MAGPOS">      0.00000000      0.00000000      0.00000000</v>
   <i type="logical" name="LNICSALL"> T  </i>
   <i type="logical" name="ORBITALMAG"> F  </i>
   <i type="logical" name="LMAGBLOCH"> F  </i>
   <i type="logical" name="LCHIMAG"> F  </i>
   <i type="logical" name="LGAUGE"> T  </i>
   <i type="int" name="MAGATOM">     0</i>
   <v name="MAGDIPOL">      0.00000000      0.00000000      0.00000000</v>
   <v name="AVECCONST">      0.00000000      0.00000000      0.00000000</v>
  </separator>
  <separator name="response functions" >
   <i type="logical" name="LADDER"> F  </i>
   <i type="logical" name="LRPAFORCE"> F  </i>
   <i type="logical" name="LFXC"> F  </i>
   <i type="logical" name="LHARTREE"> T  </i>
   <i type="int" name="IBSE">     0</i>
   <v type="int" name="KPOINT">    -1     0     0     0</v>
   <i type="logical" name="LTCTE"> F  </i>
   <i type="logical" name="LTETE"> F  </i>
   <i type="logical" name="LTRIPLET"> F  </i>
   <i type="logical" name="LFXCEPS"> F  </i>
   <i type="logical" name="LFXHEG"> F  </i>
   <i type="int" name="NATURALO">     2</i>
   <i type="logical" name="L2ORDER"> F  </i>
   <i type="logical" name="LMP2LT"> F  </i>
   <i type="logical" name="LUSEW"> F  </i>
   <i name="ENCUTGW">     -2.00000000</i>
   <i name="ENCUTGWSOFT">     -2.00000000</i>
   <i name="ENCUTLF">     -1.00000000</i>
   <i type="int" name="LMAXMP2">    -1</i>
   <i name="SCISSOR">      0.00000000</i>
   <i type="int" name="NOMEGA">     0</i>
   <i type="int" name="NOMEGAR">     0</i>
   <i type="int" name="NBANDSGW">    -1</i>
   <i type="int" name="NBANDSO">    -1</i>
   <i type="int" name="NBANDSV">    -1</i>
   <i type="int" name="NELM">     1</i>
   <i type="int" name="NELMHF">     1</i>
   <i type="int" name="DIM">     3</i>
   <i type="int" name="ANTIRES">     0</i>
   <i name="OMEGAMAX">    -30.00000000</i>
   <i name="OMEGAMIN">    -30.00000000</i>
   <i name="OMEGATL">   -200.00000000</i>
   <i type="int" name="OMEGAGRID">   140</i>
   <i name="CSHIFT">     -0.10000000</i>
   <i type="logical" name="SELFENERGY"> F  </i>
   <i type="logical" name="LSPECTRAL"> F  </i>
   <i type="logical" name="LSPECTRALGW"> F  </i>
   <i type="logical" name="LSINGLES"> F  </i>
   <i type="logical" name="LFERMIGW"> F  </i>
   <i type="logical" name="ODDONLYGW"> F  </i>
   <i type="logical" name="EVENONLYGW"> F  </i>
   <i type="int" name="NKREDLFX">     1</i>
   <i type="int" name="NKREDLFY">     1</i>
   <i type="int" name="NKREDLFZ">     1</i>
   <i type="int" name="MAXMEM">  2800</i>
   <i type="int" name="TELESCOPE">     0</i>
   <i type="int" name="TAUPAR">     1</i>
   <i type="int" name="OMEGAPAR">    -1</i>
   <i name="LAMBDA">      1.00000000</i>
  </separator>
  <separator name="External order field" >
   <i name="OFIELD_KAPPA">      0.00000000</i>
   <v name="OFIELD_K">      0.00000000      0.00000000      0.00000000</v>
   <i name="OFIELD_Q6_NEAR">      0.00000000</i>
   <i name="OFIELD_Q6_FAR">      0.00000000</i>
   <i name="OFIELD_A">      0.00000000</i>
  </separator>
 </parameters>
 <atominfo>
  <atoms>      62 </atoms>
  <types>       5 </types>
  <array name="atoms" >
   <dimension dim="1">ion</dimension>
   <field type="string">element</field>
   <field type="int">atomtype</field>
   <set>
    <rc><c>Li</c><c>   1</c></rc>
    <rc><c>Li</c><c>   1</c></rc>
    <rc><c>Li</c><c>   1</c></rc>
    <rc><c>Li</c><c>   1</c></rc>
    <rc><c>Li</c><c>   1</c></rc>
    <rc><c>Li</c><c>   1</c></rc>
    <rc><c>Li</c><c>   1</c></rc>
    <rc><c>Li</c><c>   1</c></rc>
    <rc><c>Li</c><c>   1</c></rc>
    <rc><c>Li</c><c>   1</c></rc>
    <rc><c>Li</c><c>   1</c></rc>
    <rc><c>Li</c><c>   1</c></rc>
    <rc><c>Mg</c><c>   2</c></rc>
    <rc><c>Mg</c><c>   2</c></rc>
    <rc><c>Bi</c><c>   3</c></rc>
    <rc><c>Bi</c><c>   3</c></rc>
    <rc><c>Bi</c><c>   3</c></rc>
    <rc><c>Bi</c><c>   3</c></rc>
    <rc><c>Bi</c><c>   3</c></rc>
    <rc><c>Bi</c><c>   3</c></rc>
    <rc><c>Bi</c><c>   3</c></rc>
    <rc><c>Bi</c><c>   3</c></rc>
    <rc><c>Bi</c><c>   3</c></rc>
    <rc><c>Bi</c><c>   3</c></rc>
    <rc><c>Bi</c><c>   3</c></rc>
    <rc><c>Bi</c><c>   3</c></rc>
    <rc><c>Bi</c><c>   3</c></rc>
    <rc><c>Bi</c><c>   3</c></rc>
    <rc><c>Bi</c><c>   3</c></rc>
    <rc><c>Bi</c><c>   3</c></rc>
    <rc><c>S </c><c>   4</c></rc>
    <rc><c>S </c><c>   4</c></rc>
    <rc><c>S </c><c>   4</c></rc>
    <rc><c>S </c><c>   4</c></rc>
    <rc><c>S </c><c>   4</c></rc>
    <rc><c>S </c><c>   4</c></rc>
    <rc><c>S </c><c>   4</c></rc>
    <rc><c>S </c><c>   4</c></rc>
    <rc><c>S </c><c>   4</c></rc>
    <rc><c>S </c><c>   4</c></rc>
    <rc><c>S </c><c>   4</c></rc>
    <rc><c>S </c><c>   4</c></rc>
    <rc><c>S </c><c>   4</c></rc>
    <rc><c>S </c><c>   4</c></rc>
    <rc><c>S </c><c>   4</c></rc>
    <rc><c>S </c><c>   4</c></rc>
    <rc><c>O </c><c>   5</c></rc>
    <rc><c>O </c><c>   5</c></rc>
    <rc><c>O </c><c>   5</c></rc>
    <rc><c>O </c><c>   5</c></rc>
    <rc><c>O </c><c>   5</c></rc>
    <rc><c>O </c><c>   5</c></rc>
    <rc><c>O </c><c>   5</c></rc>
    <rc><c>O </c><c>   5</c></rc>
    <rc><c>O </c><c>   5</c></rc>
    <rc><c>O </c><c>   5</c></rc>
    <rc><c>O </c><c>   5</c></rc>
    <rc><c>O </c><c>   5</c></rc>
    <rc><c>O </c><c>   5</c></rc>
    <rc><c>O </c><c>   5</c></rc>
    <rc><c>O </c><c>   5</c></rc>
    <rc><c>O </c><c>   5</c></rc>
   </set>
  </array>
  <array name="atomtypes" >
   <dimension dim="1">type</dimension>
   <field type="int">atomspertype</field>
   <field type="string">element</field>
   <field>mass</field>
   <field>valence</field>
   <field type="string">pseudopotential</field>
   <set>
    <rc><c>  12</c><c>Li</c><c>      7.01000000</c><c>      3.00000000</c><c>  PAW_PBE Li_sv 10Sep2004               </c></rc>
    <rc><c>   2</c><c>Mg</c><c>     24.30500000</c><c>      2.00000000</c><c>  PAW_PBE Mg 13Apr2007                  </c></rc>
    <rc><c>  16</c><c>Bi</c><c>    208.98000000</c><c>     15.00000000</c><c>  PAW_PBE Bi_d 06Sep2000                </c></rc>
    <rc><c>  16</c><c>S </c><c>     32.06600000</c><c>      6.00000000</c><c>  PAW_PBE S 06Sep2000                   </c></rc>
    <rc><c>  16</c><c>O </c><c>     16.00000000</c><c>      6.00000000</c><c>  PAW_PBE O 08Apr2002                   </c></rc>
   </set>
  </array>
 </atominfo>
 <structure name="initialpos" >
  <crystal>
   <varray name="basis" >
    <v>      11.17850000       0.00000000       0.00000000 </v>
    <v>       0.00000000       9.57460000       0.00000000 </v>
    <v>       0.00000000       0.00000000      11.18240000 </v>
   </varray>
   <i name="volume">   1196.84853820 </i>
   <varray name="rec_basis" >
    <v>       0.08945744       0.00000000       0.00000000 </v>
    <v>       0.00000000       0.10444301       0.00000000 </v>
    <v>       0.00000000       0.00000000       0.08942624 </v>
   </varray>
  </crystal>
  <varray name="positions" >
   <v>       0.37539000       0.00017000       0.43687000 </v>
   <v>       0.12461000       0.99984000       0.18687000 </v>
   <v>       0.37461000       0.00017000       0.18687000 </v>
   <v>       0.62539000       0.99984000       0.43687000 </v>
   <v>       0.87539000       0.00017000       0.43687000 </v>
   <v>       0.62461000       0.99984000       0.18687000 </v>
   <v>       0.87461000       0.00017000       0.18687000 </v>
   <v>       0.12461000       0.99984000       0.68687000 </v>
   <v>       0.62539000       0.99984000       0.93687000 </v>
   <v>       0.87539000       0.00017000       0.93687000 </v>
   <v>       0.62461000       0.99984000       0.68687000 </v>
   <v>       0.87461000       0.00017000       0.68687000 </v>
   <v>       0.12539000       0.99984000       0.93687000 </v>
   <v>       0.37461000       0.00017000       0.68687000 </v>
   <v>       0.00013000       0.29519000       0.06281000 </v>
   <v>       0.25013000       0.70481000       0.06281000 </v>
   <v>       0.24987000       0.29519000       0.31282000 </v>
   <v>       0.49987000       0.70481000       0.31282000 </v>
   <v>       0.50013000       0.29519000       0.06281000 </v>
   <v>       0.75013000       0.70481000       0.06281000 </v>
   <v>       0.74987000       0.29519000       0.31282000 </v>
   <v>       0.99987000       0.70481000       0.31282000 </v>
   <v>       0.00013000       0.29519000       0.56281000 </v>
   <v>       0.25013000       0.70481000       0.56281000 </v>
   <v>       0.24987000       0.29519000       0.81282000 </v>
   <v>       0.49987000       0.70481000       0.81282000 </v>
   <v>       0.50013000       0.29519000       0.56281000 </v>
   <v>       0.75013000       0.70481000       0.56281000 </v>
   <v>       0.74987000       0.29519000       0.81282000 </v>
   <v>       0.99987000       0.70481000       0.81282000 </v>
   <v>       0.25005000       0.32677000       0.06286000 </v>
   <v>       0.00005000       0.67323000       0.06286000 </v>
   <v>       0.49995000       0.32677000       0.31286000 </v>
   <v>       0.24995000       0.67323000       0.31286000 </v>
   <v>       0.75005000       0.32677000       0.06286000 </v>
   <v>       0.50005000       0.67323000       0.06286000 </v>
   <v>       0.99995000       0.32677000       0.31286000 </v>
   <v>       0.74995000       0.67323000       0.31286000 </v>
   <v>       0.25005000       0.32677000       0.56286000 </v>
   <v>       0.00005000       0.67323000       0.56286000 </v>
   <v>       0.49995000       0.32677000       0.81286000 </v>
   <v>       0.24995000       0.67323000       0.81286000 </v>
   <v>       0.75005000       0.32677000       0.56286000 </v>
   <v>       0.50005000       0.67323000       0.56286000 </v>
   <v>       0.99995000       0.32677000       0.81286000 </v>
   <v>       0.74995000       0.67323000       0.81286000 </v>
   <v>       0.49987000       0.07798000       0.06246000 </v>
   <v>       0.24987000       0.92202000       0.06246000 </v>
   <v>       0.25013000       0.07798000       0.31246000 </v>
   <v>       0.00013000       0.92202000       0.31246000 </v>
   <v>       0.99987000       0.07798000       0.06246000 </v>
   <v>       0.74987000       0.92202000       0.06246000 </v>
   <v>       0.75013000       0.07798000       0.31246000 </v>
   <v>       0.50013000       0.92202000       0.31246000 </v>
   <v>       0.49987000       0.07798000       0.56246000 </v>
   <v>       0.24987000       0.92202000       0.56246000 </v>
   <v>       0.25013000       0.07798000       0.81246000 </v>
   <v>       0.00013000       0.92202000       0.81246000 </v>
   <v>       0.99987000       0.07798000       0.56246000 </v>
   <v>       0.74987000       0.92202000       0.56246000 </v>
   <v>       0.75013000       0.07798000       0.81246000 </v>
   <v>       0.50013000       0.92202000       0.81246000 </v>
  </varray>
 </structure>
 <calculation>
  <scstep>
   <time name="dav">   64.68   64.78</time>
   <time name="total">   64.76   64.88</time>
   <energy>
    <i name="alphaZ">   1079.87189334 </i>
    <i name="ewald"> -31110.14887064 </i>
    <i name="hartreedc"> -12714.87553706 </i>
    <i name="XCdc">   1468.88809361 </i>
    <i name="pawpsdc">  36917.91861236 </i>
    <i name="pawaedc"> -36503.41947684 </i>
    <i name="eentropy">      0.00000000 </i>
    <i name="bandstr">   1589.49433196 </i>
    <i name="atom">  45173.57650906 </i>
    <i name="e_fr_energy">   5901.30555580 </i>
    <i name="e_wo_entrp">   5901.30555580 </i>
    <i name="e_0_energy">   5901.30555580 </i>
   </energy>
  </scstep>
  <scstep>
   <time name="dav">   64.91   64.93</time>
   <time name="total">   64.92   64.94</time>
   <energy>
    <i name="e_fr_energy">    755.46044090 </i>
    <i name="e_wo_entrp">    755.46044090 </i>
    <i name="e_0_energy">    755.46044090 </i>
   </energy>
  </scstep>
  <scstep>
   <time name="dav">   71.43   71.50</time>
   <time name="total">   71.43   71.51</time>
   <energy>
    <i name="e_fr_energy">   -243.04796105 </i>
    <i name="e_wo_entrp">   -243.04796105 </i>
    <i name="e_0_energy">   -243.04796105 </i>
   </energy>
  </scstep>
  <scstep>
   <time name="dav">   78.27   78.32</time>
   <time name="total">   78.27   78.33</time>
   <energy>
    <i name="e_fr_energy">   -352.04737795 </i>
    <i name="e_wo_entrp">   -352.04737795 </i>
    <i name="e_0_energy">   -352.04737795 </i>
   </energy>
  </scstep>
  <scstep>
   <time name="dav">  104.19  104.27</time>
   <time name="total">  104.91  105.00</time>
   <energy>
    <i name="e_fr_energy">   -361.13138933 </i>
    <i name="e_wo_entrp">   -361.13138933 </i>
    <i name="e_0_energy">   -361.13138933 </i>
   </energy>
  </scstep>
  <scstep>
   <time name="dav">   90.90   91.01</time>
   <time name="total">   91.70   91.82</time>
   <energy>
    <i name="e_fr_energy">   -301.16363918 </i>
    <i name="e_wo_entrp">   -301.16363918 </i>
    <i name="e_0_energy">   -301.16363918 </i>
   </energy>
  </scstep>
  <scstep>
   <time name="dav">   72.21   72.39</time>
   <time name="total">   73.00   73.19</time>
   <energy>
    <i name="e_fr_energy">   -303.33794589 </i>
    <i name="e_wo_entrp">   -303.33794589 </i>
    <i name="e_0_energy">   -303.33794589 </i>
   </energy>
  </scstep>
  <scstep>
   <time name="dav">   81.11   81.32</time>
   <time name="total">   81.90   82.12</time>
   <energy>
    <i name="e_fr_energy">   -301.93673382 </i>
    <i name="e_wo_entrp">   -301.93673382 </i>
    <i name="e_0_energy">   -301.93673382 </i>
   </energy>
  </scstep>
  <scstep>
   <time name="dav">   92.84   92.94</time>
   <time name="total">   93.64   93.73</time>
   <energy>
    <i name="e_fr_energy">   -301.31693369 </i>
    <i name="e_wo_entrp">   -301.31693369 </i>
    <i name="e_0_energy">   -301.31693369 </i>
   </energy>
  </scstep>
  <scstep>
   <time name="dav">   78.67   78.66</time>
   <time name="total">   79.46   79.47</time>
   <energy>
    <i name="e_fr_energy">   -301.27474661 </i>
    <i name="e_wo_entrp">   -301.27474661 </i>
    <i name="e_0_energy">   -301.27474661 </i>
   </energy>
  </scstep>
  <scstep>
   <time name="dav">   83.34   83.39</time>
   <time name="total">   84.14   84.19</time>
   <energy>
    <i name="e_fr_energy">   -301.28827864 </i>
    <i name="e_wo_entrp">   -301.28827864 </i>
    <i name="e_0_energy">   -301.28827864 </i>
   </energy>
  </scstep>
  <scstep>
   <time name="dav">   80.14   80.24</time>
   <time name="total">   80.92   81.04</time>
   <energy>
    <i name="e_fr_energy">   -301.29305146 </i>
    <i name="e_wo_entrp">   -301.29305146 </i>
    <i name="e_0_energy">   -301.29305146 </i>
   </energy>
  </scstep>
  <scstep>
   <time name="dav">   83.86   83.94</time>
   <time name="total">   84.66   84.74</time>
   <energy>
    <i name="e_fr_energy">   -301.29386702 </i>
    <i name="e_wo_entrp">   -301.29386702 </i>
    <i name="e_0_energy">   -301.29386702 </i>
   </energy>
  </scstep>
  <scstep>
   <time name="dav">   74.66   74.79</time>
   <time name="total">   75.45   75.59</time>
   <energy>
    <i name="e_fr_energy">   -301.29413041 </i>
    <i name="e_wo_entrp">   -301.29413041 </i>
    <i name="e_0_energy">   -301.29413041 </i>
   </energy>
  </scstep>
  <scstep>
   <time name="dav">   93.59   93.68</time>
   <time name="total">   94.38   94.48</time>
   <energy>
    <i name="e_fr_energy">   -301.29417068 </i>
    <i name="e_wo_entrp">   -301.29417068 </i>
    <i name="e_0_energy">   -301.29417068 </i>
   </energy>
  </scstep>
  <scstep>
   <time name="dav">   72.21   72.22</time>
   <time name="total">   73.01   73.02</time>
   <energy>
    <i name="e_fr_energy">   -301.29418740 </i>
    <i name="e_wo_entrp">   -301.29418740 </i>
    <i name="e_0_energy">   -301.29418740 </i>
   </energy>
  </scstep>
  <scstep>
   <time name="dav">   72.73   72.79</time>
   <time name="total">   73.53   73.59</time>
   <energy>
    <i name="e_fr_energy">   -301.29419048 </i>
    <i name="e_wo_entrp">   -301.29419048 </i>
    <i name="e_0_energy">   -301.29419048 </i>
   </energy>
  </scstep>
  <scstep>
   <time name="dav">   58.19   58.25</time>
   <time name="total">   58.26   58.33</time>
   <energy>
    <i name="alphaZ">   1079.87189334 </i>
    <i name="ewald"> -31110.14887064 </i>
    <i name="hartreedc"> -12950.87694988 </i>
    <i name="XCdc">   1491.82576371 </i>
    <i name="pawpsdc">  43947.53247067 </i>
    <i name="pawaedc"> -43508.53756934 </i>
    <i name="eentropy">      0.00000000 </i>
    <i name="bandstr">  -4424.53743789 </i>
    <i name="atom">  45173.57650906 </i>
    <i name="e_fr_energy">   -301.29419095 </i>
    <i name="e_wo_entrp">   -301.29419095 </i>
    <i name="e_0_energy">   -301.29419095 </i>
   </energy>
  </scstep>
  <structure>
   <crystal>
    <varray name="basis" >
     <v>      11.17850000       0.00000000       0.00000000 </v>
     <v>       0.00000000       9.57460000       0.00000000 </v>
     <v>       0.00000000       0.00000000      11.18240000 </v>
    </varray>
    <i name="volume">   1196.84853820 </i>
    <varray name="rec_basis" >
     <v>       0.08945744       0.00000000       0.00000000 </v>
     <v>       0.00000000       0.10444301       0.00000000 </v>
     <v>       0.00000000       0.00000000       0.08942624 </v>
    </varray>
   </crystal>
   <varray name="positions" >
    <v>       0.37539000       0.00017000       0.43687000 </v>
    <v>       0.12461000       0.99984000       0.18687000 </v>
    <v>       0.37461000       0.00017000       0.18687000 </v>
    <v>       0.62539000       0.99984000       0.43687000 </v>
    <v>       0.87539000       0.00017000       0.43687000 </v>
    <v>       0.62461000       0.99984000       0.18687000 </v>
    <v>       0.87461000       0.00017000       0.18687000 </v>
    <v>       0.12461000       0.99984000       0.68687000 </v>
    <v>       0.62539000       0.99984000       0.93687000 </v>
    <v>       0.87539000       0.00017000       0.93687000 </v>
    <v>       0.62461000       0.99984000       0.68687000 </v>
    <v>       0.87461000       0.00017000       0.68687000 </v>
    <v>       0.12539000       0.99984000       0.93687000 </v>
    <v>       0.37461000       0.00017000       0.68687000 </v>
    <v>       0.00013000       0.29519000       0.06281000 </v>
    <v>       0.25013000       0.70481000       0.06281000 </v>
    <v>       0.24987000       0.29519000       0.31282000 </v>
    <v>       0.49987000       0.70481000       0.31282000 </v>
    <v>       0.50013000       0.29519000       0.06281000 </v>
    <v>       0.75013000       0.70481000       0.06281000 </v>
    <v>       0.74987000       0.29519000       0.31282000 </v>
    <v>       0.99987000       0.70481000       0.31282000 </v>
    <v>       0.00013000       0.29519000       0.56281000 </v>
    <v>       0.25013000       0.70481000       0.56281000 </v>
    <v>       0.24987000       0.29519000       0.81282000 </v>
    <v>       0.49987000       0.70481000       0.81282000 </v>
    <v>       0.50013000       0.29519000       0.56281000 </v>
    <v>       0.75013000       0.70481000       0.56281000 </v>
    <v>       0.74987000       0.29519000       0.81282000 </v>
    <v>       0.99987000       0.70481000       0.81282000 </v>
    <v>       0.25005000       0.32677000       0.06286000 </v>
    <v>       0.00005000       0.67323000       0.06286000 </v>
    <v>       0.49995000       0.32677000       0.31286000 </v>
    <v>       0.24995000       0.67323000       0.31286000 </v>
    <v>       0.75005000       0.32677000       0.06286000 </v>
    <v>       0.50005000       0.67323000       0.06286000 </v>
    <v>       0.99995000       0.32677000       0.31286000 </v>
    <v>       0.74995000       0.67323000       0.31286000 </v>
    <v>       0.25005000       0.32677000       0.56286000 </v>
    <v>       0.00005000       0.67323000       0.56286000 </v>
    <v>       0.49995000       0.32677000       0.81286000 </v>
    <v>       0.24995000       0.67323000       0.81286000 </v>
    <v>       0.75005000       0.32677000       0.56286000 </v>
    <v>       0.50005000       0.67323000       0.56286000 </v>
    <v>       0.99995000       0.32677000       0.81286000 </v>
    <v>       0.74995000       0.67323000       0.81286000 </v>
    <v>       0.49987000       0.07798000       0.06246000 </v>
    <v>       0.24987000       0.92202000       0.06246000 </v>
    <v>       0.25013000       0.07798000       0.31246000 </v>
    <v>       0.00013000       0.92202000       0.31246000 </v>
    <v>       0.99987000       0.07798000       0.06246000 </v>
    <v>       0.74987000       0.92202000       0.06246000 </v>
    <v>       0.75013000       0.07798000       0.31246000 </v>
    <v>       0.50013000       0.92202000       0.31246000 </v>
    <v>       0.49987000       0.07798000       0.56246000 </v>
    <v>       0.24987000       0.92202000       0.56246000 </v>
    <v>       0.25013000       0.07798000       0.81246000 </v>
    <v>       0.00013000       0.92202000       0.81246000 </v>
    <v>       0.99987000       0.07798000       0.56246000 </v>
    <v>       0.74987000       0.92202000       0.56246000 </v>
    <v>       0.75013000       0.07798000       0.81246000 </v>
    <v>       0.50013000       0.92202000       0.81246000 </v>
   </varray>
  </structure>
  <varray name="forces" >
   <v>      -0.50032529       0.00033148      -0.51783182 </v>
   <v>       0.16917608      -0.06277379       0.85813945 </v>
   <v>      -0.06633926       0.13170208      -0.21037485 </v>
   <v>       0.08738757      -0.06452139      -0.12118048 </v>
   <v>       0.47797963       0.00163610      -0.03705941 </v>
   <v>      -0.14988521       0.06611369      -0.12289686 </v>
   <v>       0.07440862      -0.12748705       0.29603272 </v>
   <v>      -0.30670455       0.06984717      -0.85153329 </v>
   <v>      -0.42514182       0.06843274       0.12374476 </v>
   <v>      -0.51124870       0.00340865       0.04773859 </v>
   <v>       0.32673692      -0.06399655       0.14373693 </v>
   <v>       0.07461232       0.13150666      -0.28332572 </v>
   <v>       0.80723108      -0.10410178       0.28987419 </v>
   <v>      -0.00154082      -0.23099760       0.56645246 </v>
   <v>      -0.10894364       1.04491915       0.34896065 </v>
   <v>       0.28607478      -0.00733084       0.22423243 </v>
   <v>      -0.14686598      -1.02288332       0.09874991 </v>
   <v>      -0.02170004      -0.00725130      -0.11462208 </v>
   <v>      -0.09120675      -1.01508508       0.05445899 </v>
   <v>      -0.10882491      -0.00776651       0.15735727 </v>
   <v>       0.04303164      -0.01206483      -0.01437142 </v>
   <v>       0.15095306       1.02850132       0.19531724 </v>
   <v>       0.07378835      -0.98769997      -0.35862229 </v>
   <v>      -0.30343426      -0.05263014      -0.47058858 </v>
   <v>       0.18405131       0.98345598       0.12825341 </v>
   <v>       0.04372241       0.01159836       0.28833168 </v>
   <v>       0.10884361       1.04155599      -0.25561693 </v>
   <v>       0.09601538      -0.00830979      -0.15106078 </v>
   <v>      -0.03806675       0.03739263      -0.00891524 </v>
   <v>      -0.16857741      -1.07558394      -0.19424252 </v>
   <v>      -0.25084879       0.12108404      -0.29000629 </v>
   <v>       0.04285158      -0.13887807      -0.30919399 </v>
   <v>       0.10520589       0.22854662       0.19806263 </v>
   <v>       0.11702023      -0.19772268      -0.01063336 </v>
   <v>       0.18803629       0.18753600      -0.08285866 </v>
   <v>       0.02074325      -0.16631830      -0.05596008 </v>
   <v>      -0.11457459       0.18868954      -0.20075356 </v>
   <v>      -0.10482621      -0.22007442       0.00638330 </v>
   <v>       0.23807953       0.10082976       0.30944335 </v>
   <v>      -0.01359718      -0.15647125       0.27824730 </v>
   <v>      -0.10054776       0.08330653      -0.23947202 </v>
   <v>      -0.10623035      -0.05070563      -0.01330294 </v>
   <v>      -0.18378486       0.18680972       0.07485238 </v>
   <v>      -0.04665694      -0.14868214       0.10853980 </v>
   <v>       0.12036337       0.09602419       0.22120440 </v>
   <v>       0.08976091      -0.14907091       0.00104038 </v>
   <v>       0.62591669       0.80358798       0.53695588 </v>
   <v>      -1.25996928      -0.00192375      -0.11282069 </v>
   <v>       0.64540037       0.83373244      -0.59492955 </v>
   <v>      -0.66018232      -0.82073969      -0.73852328 </v>
   <v>       0.49510963      -0.81673073      -0.74125491 </v>
   <v>       0.15962041       0.01940060      -0.08840384 </v>
   <v>      -0.07828808       0.02963484      -0.00004985 </v>
   <v>       0.06948413      -0.03105298       0.15109730 </v>
   <v>      -0.46947889      -0.78512751       0.55137295 </v>
   <v>       1.17669881       0.13361558       1.26129778 </v>
   <v>      -0.71603922      -0.70665898      -0.60851050 </v>
   <v>       0.55771619       0.87318022       0.62394025 </v>
   <v>      -0.57950860       0.75751676       0.82223796 </v>
   <v>      -0.14405613       0.02040794       0.08535739 </v>
   <v>       0.07711704      -0.08530079      -0.00206265 </v>
   <v>       0.04425750       0.04163694      -1.25043533 </v>
  </varray>
  <varray name="stress" >
   <v>      -7.96149320       0.29902924      -0.73800998 </v>
   <v>       0.29902908     -14.51526332       0.24457848 </v>
   <v>      -0.73801012       0.24457833      -9.08960961 </v>
  </varray>
  <energy>
   <i name="e_fr_energy">   -317.14325147 </i>
   <i name="e_wo_entrp">   -317.14325147 </i>
   <i name="e_0_energy">      0.00000000 </i>
  </energy>
  <time name="totalsc"> 1543.48 1545.32</time>
  <eigenvalues>
   <array>
    <dimension dim="1">band</dimension>
    <dimension dim="2">kpoint</dimension>
    <dimension dim="3">spin</dimension>
    <field>eigene</field>
    <field>occ</field>
    <set>
     <set comment="spin 1">
      <set comment="kpoint 1">
       <r>  -40.2065    1.0000 </r>
       <r>  -40.0579    1.0000 </r>
       <r>  -40.0310    1.0000 </r>
       <r>  -39.8928    1.0000 </r>
       <r>  -39.8291    1.0000 </r>
       <r>  -39.7546    1.0000 </r>
       <r>  -39.7380    1.0000 </r>
       <r>  -39.6213    1.0000 </r>
       <r>  -39.5957    1.0000 </r>
       <r>  -39.5664    1.0000 </r>
       <r>  -39.3806    1.0000 </r>
       <r>  -39.3803    1.0000 </r>
       <r>  -18.9120    1.0000 </r>
       <r>  -18.8951    1.0000 </r>
       <r>  -18.8399    1.0000 </r>
       <r>  -18.8329    1.0000 </r>
       <r>  -18.8256    1.0000 </r>
       <r>  -18.8244    1.0000 </r>
       <r>  -18.8204    1.0000 </r>
       <r>  -18.8125    1.0000 </r>
       <r>  -18.7549    1.0000 </r>
       <r>  -18.7542    1.0000 </r>
       <r>  -18.7474    1.0000 </r>
       <r>  -18.7462    1.0000 </r>
       <r>  -18.7371    1.0000 </r>
       <r>  -18.7246    1.0000 </r>
       <r>  -18.7245    1.0000 </r>
       <r>  -18.7029    1.0000 </r>
       <r>  -18.6930    1.0000 </r>
       <r>  -18.6832    1.0000 </r>
       <r>  -18.6761    1.0000 </r>
       <r>  -18.6755    1.0000 </r>
       <r>  -18.6634    1.0000 </r>
       <r>  -18.6577    1.0000 </r>
       <r>  -18.6451    1.0000 </r>
       <r>  -18.6448    1.0000 </r>
       <r>  -18.6412    1.0000 </r>
       <r>  -18.6394    1.0000 </r>
       <r>  -18.6391    1.0000 </r>
       <r>  -18.6355    1.0000 </r>
       <r>  -18.6300    1.0000 </r>
       <r>  -18.6273    1.0000 </r>
       <r>  -18.6200    1.0000 </r>
       <r>  -18.6186    1.0000 </r>
       <r>  -18.6139    1.0000 </r>
       <r>  -18.6118    1.0000 </r>
       <r>  -18.6079    1.0000 </r>
       <r>  -18.6047    1.0000 </r>
       <r>  -18.5980    1.0000 </r>
       <r>  -18.5944    1.0000 </r>
       <r>  -18.5403    1.0000 </r>
       <r>  -18.5358    1.0000 </r>
       <r>  -18.5311    1.0000 </r>
       <r>  -18.5270    1.0000 </r>
       <r>  -18.5202    1.0000 </r>
       <r>  -18.5189    1.0000 </r>
       <r>  -18.5181    1.0000 </r>
       <r>  -18.5138    1.0000 </r>
       <r>  -18.5079    1.0000 </r>
       <r>  -18.5044    1.0000 </r>
       <r>  -18.4843    1.0000 </r>
       <r>  -18.4820    1.0000 </r>
       <r>  -18.4731    1.0000 </r>
       <r>  -18.4587    1.0000 </r>
       <r>  -18.4533    1.0000 </r>
       <r>  -18.4521    1.0000 </r>
       <r>  -18.4494    1.0000 </r>
       <r>  -18.4490    1.0000 </r>
       <r>  -18.4401    1.0000 </r>
       <r>  -18.4282    1.0000 </r>
       <r>  -18.4275    1.0000 </r>
       <r>  -18.4159    1.0000 </r>
       <r>  -18.3781    1.0000 </r>
       <r>  -18.3725    1.0000 </r>
       <r>  -18.3668    1.0000 </r>
       <r>  -18.3668    1.0000 </r>
       <r>  -18.3617    1.0000 </r>
       <r>  -18.3594    1.0000 </r>
       <r>  -18.3576    1.0000 </r>
       <r>  -18.3554    1.0000 </r>
       <r>  -18.3478    1.0000 </r>
       <r>  -18.3379    1.0000 </r>
       <r>  -18.2806    1.0000 </r>
       <r>  -18.2705    1.0000 </r>
       <r>  -18.2349    1.0000 </r>
       <r>  -18.2260    1.0000 </r>
       <r>  -18.2209    1.0000 </r>
       <r>  -18.2124    1.0000 </r>
       <r>  -18.1654    1.0000 </r>
       <r>  -18.1561    1.0000 </r>
       <r>  -18.1519    1.0000 </r>
       <r>  -18.1417    1.0000 </r>
       <r>  -13.5678    1.0000 </r>
       <r>  -13.4540    1.0000 </r>
       <r>  -13.3790    1.0000 </r>
       <r>  -13.3654    1.0000 </r>
       <r>  -12.8108    1.0000 </r>
       <r>  -12.7646    1.0000 </r>
       <r>  -12.7230    1.0000 </r>
       <r>  -12.7041    1.0000 </r>
       <r>  -12.6437    1.0000 </r>
       <r>  -12.6305    1.0000 </r>
       <r>  -12.5493    1.0000 </r>
       <r>  -12.4986    1.0000 </r>
       <r>  -12.0278    1.0000 </r>
       <r>  -11.9843    1.0000 </r>
       <r>  -11.9258    1.0000 </r>
       <r>  -11.8817    1.0000 </r>
       <r>   -9.2957    1.0000 </r>
       <r>   -9.0022    1.0000 </r>
       <r>   -8.5311    1.0000 </r>
       <r>   -8.4885    1.0000 </r>
       <r>   -8.4291    1.0000 </r>
       <r>   -8.3885    1.0000 </r>
       <r>   -8.3086    1.0000 </r>
       <r>   -8.2655    1.0000 </r>
       <r>   -8.2038    1.0000 </r>
       <r>   -8.1674    1.0000 </r>
       <r>   -8.0033    1.0000 </r>
       <r>   -7.9903    1.0000 </r>
       <r>   -7.9658    1.0000 </r>
       <r>   -7.9514    1.0000 </r>
       <r>   -7.3257    1.0000 </r>
       <r>   -7.3179    1.0000 </r>
       <r>   -6.3436    1.0000 </r>
       <r>   -6.3427    1.0000 </r>
       <r>   -6.3213    1.0000 </r>
       <r>   -6.3205    1.0000 </r>
       <r>   -5.4957    1.0000 </r>
       <r>   -5.4425    1.0000 </r>
       <r>   -5.4325    1.0000 </r>
       <r>   -5.3193    1.0000 </r>
       <r>   -5.2710    1.0000 </r>
       <r>   -5.2282    1.0000 </r>
       <r>   -5.1931    1.0000 </r>
       <r>   -5.1172    1.0000 </r>
       <r>   -5.0331    1.0000 </r>
       <r>   -4.9811    1.0000 </r>
       <r>   -3.7722    1.0000 </r>
       <r>   -3.6166    1.0000 </r>
       <r>   -1.4009    1.0000 </r>
       <r>   -1.3056    1.0000 </r>
       <r>   -1.0509    1.0000 </r>
       <r>   -1.0001    1.0000 </r>
       <r>   -0.5449    1.0000 </r>
       <r>   -0.5156    1.0000 </r>
       <r>   -0.4458    1.0000 </r>
       <r>   -0.4136    1.0000 </r>
       <r>   -0.1683    1.0000 </r>
       <r>   -0.1565    1.0000 </r>
       <r>   -0.1262    1.0000 </r>
       <r>   -0.0933    1.0000 </r>
       <r>    0.0195    1.0000 </r>
       <r>    0.1396    1.0000 </r>
       <r>    0.3229    1.0000 </r>
       <r>    0.3302    1.0000 </r>
       <r>    0.3984    1.0000 </r>
       <r>    0.4530    1.0000 </r>
       <r>    0.5380    1.0000 </r>
       <r>    0.5841    1.0000 </r>
       <r>    0.7103    1.0000 </r>
       <r>    0.7269    1.0000 </r>
       <r>    0.7709    1.0000 </r>
       <r>    0.8081    1.0000 </r>
       <r>    0.8446    1.0000 </r>
       <r>    0.8881    1.0000 </r>
       <r>    0.9482    1.0000 </r>
       <r>    0.9861    1.0000 </r>
       <r>    1.0183    1.0000 </r>
       <r>    1.0767    1.0000 </r>
       <r>    1.1172    1.0000 </r>
       <r>    1.1475    1.0000 </r>
       <r>    1.1691    1.0000 </r>
       <r>    1.2529    1.0000 </r>
       <r>    1.2765    1.0000 </r>
       <r>    1.2867    1.0000 </r>
       <r>    1.3355    1.0000 </r>
       <r>    1.3749    1.0000 </r>
       <r>    1.4302    1.0000 </r>
       <r>    1.4723    1.0000 </r>
       <r>    1.4927    1.0000 </r>
       <r>    1.5811    1.0000 </r>
       <r>    1.6265    1.0000 </r>
       <r>    1.6590    1.0000 </r>
       <r>    1.6960    1.0000 </r>
       <r>    1.7791    1.0000 </r>
       <r>    1.8146    1.0000 </r>
       <r>    1.8663    1.0000 </r>
       <r>    1.8964    1.0000 </r>
       <r>    1.9474    1.0000 </r>
       <r>    1.9894    1.0000 </r>
       <r>    2.0310    1.0000 </r>
       <r>    2.1314    1.0000 </r>
       <r>    2.2200    1.0000 </r>
       <r>    2.2667    1.0000 </r>
       <r>    2.3026    1.0000 </r>
       <r>    2.3881    1.0000 </r>
       <r>    2.4319    1.0000 </r>
       <r>    2.5454    1.0000 </r>
       <r>    2.5843    1.0000 </r>
       <r>    2.5992    1.0000 </r>
       <r>    2.6126    1.0000 </r>
       <r>    2.6169    1.0000 </r>
       <r>    2.6282    1.0000 </r>
       <r>    2.6413    1.0000 </r>
       <r>    2.6529    1.0000 </r>
       <r>    2.7020    1.0000 </r>
       <r>    2.7488    1.0000 </r>
       <r>    2.7508    1.0000 </r>
       <r>    2.7745    1.0000 </r>
       <r>    2.8126    1.0000 </r>
       <r>    2.8492    1.0000 </r>
       <r>    2.9368    1.0000 </r>
       <r>    2.9683    1.0000 </r>
       <r>    2.9763    1.0000 </r>
       <r>    3.0303    1.0000 </r>
       <r>    3.0670    1.0000 </r>
       <r>    3.1100    1.0000 </r>
       <r>    3.1292    1.0000 </r>
       <r>    3.1630    1.0000 </r>
       <r>    3.1785    1.0000 </r>
       <r>    3.1878    1.0000 </r>
       <r>    3.2303    1.0000 </r>
       <r>    3.2478    1.0000 </r>
       <r>    3.2881    1.0000 </r>
       <r>    3.3033    1.0000 </r>
       <r>    3.3443    1.0000 </r>
       <r>    3.3925    1.0000 </r>
       <r>    3.4239    1.0000 </r>
       <r>    3.5108    1.0000 </r>
       <r>    3.5265    1.0000 </r>
       <r>    3.6396    1.0000 </r>
       <r>    4.2209    1.0000 </r>
       <r>    4.2443    1.0000 </r>
       <r>    4.2511    1.0000 </r>
       <r>    4.2606    1.0000 </r>
       <r>    5.1133    0.0000 </r>
       <r>    5.1339    0.0000 </r>
       <r>    5.1605    0.0000 </r>
       <r>    5.1805    0.0000 </r>
       <r>    5.7831    0.0000 </r>
       <r>    5.8034    0.0000 </r>
       <r>    5.8198    0.0000 </r>
       <r>    5.8374    0.0000 </r>
       <r>    6.1140    0.0000 </r>
       <r>    6.1430    0.0000 </r>
       <r>    6.1722    0.0000 </r>
       <r>    6.1787    0.0000 </r>
       <r>    6.2613    0.0000 </r>
       <r>    6.2719    0.0000 </r>
       <r>    6.3016    0.0000 </r>
       <r>    6.3136    0.0000 </r>
       <r>    7.1315    0.0000 </r>
       <r>    7.1844    0.0000 </r>
       <r>    7.2937    0.0000 </r>
       <r>    7.3162    0.0000 </r>
       <r>    7.7199    0.0000 </r>
       <r>    7.8432    0.0000 </r>
       <r>    7.9177    0.0000 </r>
       <r>    7.9823    0.0000 </r>
       <r>    8.0164    0.0000 </r>
       <r>    8.1435    0.0000 </r>
       <r>    8.2298    0.0000 </r>
       <r>    8.3502    0.0000 </r>
       <r>    8.4926    0.0000 </r>
       <r>    8.6608    0.0000 </r>
       <r>    8.7461    0.0000 </r>
       <r>    8.8065    0.0000 </r>
       <r>    8.8242    0.0000 </r>
       <r>    8.9070    0.0000 </r>
       <r>    8.9616    0.0000 </r>
       <r>    8.9639    0.0000 </r>
       <r>    9.0727    0.0000 </r>
       <r>    9.1046    0.0000 </r>
       <r>    9.1168    0.0000 </r>
       <r>    9.1626    0.0000 </r>
       <r>    9.1651    0.0000 </r>
       <r>    9.2075    0.0000 </r>
       <r>    9.2305    0.0000 </r>
       <r>    9.2833    0.0000 </r>
       <r>    9.4371    0.0000 </r>
       <r>    9.5374    0.0000 </r>
       <r>    9.5515    0.0000 </r>
       <r>    9.6367    0.0000 </r>
       <r>    9.6934    0.0000 </r>
       <r>    9.7185    0.0000 </r>
       <r>    9.7281    0.0000 </r>
       <r>    9.8648    0.0000 </r>
       <r>   10.1630    0.0000 </r>
       <r>   10.2483    0.0000 </r>
       <r>   10.2724    0.0000 </r>
       <r>   10.2863    0.0000 </r>
       <r>   10.3566    0.0000 </r>
       <r>   10.5183    0.0000 </r>
       <r>   10.6148    0.0000 </r>
       <r>   10.6323    0.0000 </r>
       <r>   10.6629    0.0000 </r>
       <r>   10.8577    0.0000 </r>
       <r>   11.0728    0.0000 </r>
       <r>   11.2054    0.0000 </r>
       <r>   11.4078    0.0000 </r>
       <r>   11.4496    0.0000 </r>
       <r>   11.5358    0.0000 </r>
       <r>   11.6620    0.0000 </r>
       <r>   11.7468    0.0000 </r>
       <r>   11.8010    0.0000 </r>
       <r>   11.8412    0.0000 </r>
       <r>   12.0197    0.0000 </r>
      </set>
      <set comment="kpoint 2">
       <r>  -40.2065    1.0000 </r>
       <r>  -40.0579    1.0000 </r>
       <r>  -40.0310    1.0000 </r>
       <r>  -39.8928    1.0000 </r>
       <r>  -39.8291    1.0000 </r>
       <r>  -39.7546    1.0000 </r>
       <r>  -39.7380    1.0000 </r>
       <r>  -39.6213    1.0000 </r>
       <r>  -39.5957    1.0000 </r>
       <r>  -39.5664    1.0000 </r>
       <r>  -39.3806    1.0000 </r>
       <r>  -39.3803    1.0000 </r>
       <r>  -18.9120    1.0000 </r>
       <r>  -18.8951    1.0000 </r>
       <r>  -18.8398    1.0000 </r>
       <r>  -18.8329    1.0000 </r>
       <r>  -18.8253    1.0000 </r>
       <r>  -18.8242    1.0000 </r>
       <r>  -18.8211    1.0000 </r>
       <r>  -18.8121    1.0000 </r>
       <r>  -18.7561    1.0000 </r>
       <r>  -18.7531    1.0000 </r>
       <r>  -18.7492    1.0000 </r>
       <r>  -18.7445    1.0000 </r>
       <r>  -18.7371    1.0000 </r>
       <r>  -18.7246    1.0000 </r>
       <r>  -18.7245    1.0000 </r>
       <r>  -18.7029    1.0000 </r>
       <r>  -18.6931    1.0000 </r>
       <r>  -18.6832    1.0000 </r>
       <r>  -18.6760    1.0000 </r>
       <r>  -18.6755    1.0000 </r>
       <r>  -18.6634    1.0000 </r>
       <r>  -18.6578    1.0000 </r>
       <r>  -18.6452    1.0000 </r>
       <r>  -18.6447    1.0000 </r>
       <r>  -18.6411    1.0000 </r>
       <r>  -18.6394    1.0000 </r>
       <r>  -18.6391    1.0000 </r>
       <r>  -18.6355    1.0000 </r>
       <r>  -18.6301    1.0000 </r>
       <r>  -18.6270    1.0000 </r>
       <r>  -18.6200    1.0000 </r>
       <r>  -18.6189    1.0000 </r>
       <r>  -18.6138    1.0000 </r>
       <r>  -18.6127    1.0000 </r>
       <r>  -18.6076    1.0000 </r>
       <r>  -18.6046    1.0000 </r>
       <r>  -18.5980    1.0000 </r>
       <r>  -18.5943    1.0000 </r>
       <r>  -18.5402    1.0000 </r>
       <r>  -18.5358    1.0000 </r>
       <r>  -18.5311    1.0000 </r>
       <r>  -18.5271    1.0000 </r>
       <r>  -18.5202    1.0000 </r>
       <r>  -18.5189    1.0000 </r>
       <r>  -18.5181    1.0000 </r>
       <r>  -18.5138    1.0000 </r>
       <r>  -18.5079    1.0000 </r>
       <r>  -18.5044    1.0000 </r>
       <r>  -18.4843    1.0000 </r>
       <r>  -18.4820    1.0000 </r>
       <r>  -18.4730    1.0000 </r>
       <r>  -18.4587    1.0000 </r>
       <r>  -18.4533    1.0000 </r>
       <r>  -18.4521    1.0000 </r>
       <r>  -18.4494    1.0000 </r>
       <r>  -18.4490    1.0000 </r>
       <r>  -18.4402    1.0000 </r>
       <r>  -18.4281    1.0000 </r>
       <r>  -18.4278    1.0000 </r>
       <r>  -18.4154    1.0000 </r>
       <r>  -18.3781    1.0000 </r>
       <r>  -18.3725    1.0000 </r>
       <r>  -18.3668    1.0000 </r>
       <r>  -18.3668    1.0000 </r>
       <r>  -18.3617    1.0000 </r>
       <r>  -18.3594    1.0000 </r>
       <r>  -18.3578    1.0000 </r>
       <r>  -18.3553    1.0000 </r>
       <r>  -18.3476    1.0000 </r>
       <r>  -18.3380    1.0000 </r>
       <r>  -18.2806    1.0000 </r>
       <r>  -18.2705    1.0000 </r>
       <r>  -18.2349    1.0000 </r>
       <r>  -18.2260    1.0000 </r>
       <r>  -18.2209    1.0000 </r>
       <r>  -18.2124    1.0000 </r>
       <r>  -18.1654    1.0000 </r>
       <r>  -18.1561    1.0000 </r>
       <r>  -18.1519    1.0000 </r>
       <r>  -18.1417    1.0000 </r>
       <r>  -13.5667    1.0000 </r>
       <r>  -13.4557    1.0000 </r>
       <r>  -13.3784    1.0000 </r>
       <r>  -13.3653    1.0000 </r>
       <r>  -12.8105    1.0000 </r>
       <r>  -12.7670    1.0000 </r>
       <r>  -12.7188    1.0000 </r>
       <r>  -12.7054    1.0000 </r>
       <r>  -12.6446    1.0000 </r>
       <r>  -12.6307    1.0000 </r>
       <r>  -12.5487    1.0000 </r>
       <r>  -12.4992    1.0000 </r>
       <r>  -12.0280    1.0000 </r>
       <r>  -11.9843    1.0000 </r>
       <r>  -11.9257    1.0000 </r>
       <r>  -11.8818    1.0000 </r>
       <r>   -9.0975    1.0000 </r>
       <r>   -9.0714    1.0000 </r>
       <r>   -8.8242    1.0000 </r>
       <r>   -8.7965    1.0000 </r>
       <r>   -8.2968    1.0000 </r>
       <r>   -8.2914    1.0000 </r>
       <r>   -8.2804    1.0000 </r>
       <r>   -8.2728    1.0000 </r>
       <r>   -8.1091    1.0000 </r>
       <r>   -8.1046    1.0000 </r>
       <r>   -8.0940    1.0000 </r>
       <r>   -8.0854    1.0000 </r>
       <r>   -7.6572    1.0000 </r>
       <r>   -7.6525    1.0000 </r>
       <r>   -7.5480    1.0000 </r>
       <r>   -7.5413    1.0000 </r>
       <r>   -5.9628    1.0000 </r>
       <r>   -5.9348    1.0000 </r>
       <r>   -5.9063    1.0000 </r>
       <r>   -5.8627    1.0000 </r>
       <r>   -5.8073    1.0000 </r>
       <r>   -5.7689    1.0000 </r>
       <r>   -5.7346    1.0000 </r>
       <r>   -5.7151    1.0000 </r>
       <r>   -5.5922    1.0000 </r>
       <r>   -5.5035    1.0000 </r>
       <r>   -5.4571    1.0000 </r>
       <r>   -5.4027    1.0000 </r>
       <r>   -4.3900    1.0000 </r>
       <r>   -4.3814    1.0000 </r>
       <r>   -4.2179    1.0000 </r>
       <r>   -4.2114    1.0000 </r>
       <r>   -1.1489    1.0000 </r>
       <r>   -1.0794    1.0000 </r>
       <r>   -0.7923    1.0000 </r>
       <r>   -0.7684    1.0000 </r>
       <r>   -0.4883    1.0000 </r>
       <r>   -0.3005    1.0000 </r>
       <r>   -0.0323    1.0000 </r>
       <r>    0.0527    1.0000 </r>
       <r>    0.0729    1.0000 </r>
       <r>    0.1260    1.0000 </r>
       <r>    0.1371    1.0000 </r>
       <r>    0.1675    1.0000 </r>
       <r>    0.2443    1.0000 </r>
       <r>    0.2766    1.0000 </r>
       <r>    0.3018    1.0000 </r>
       <r>    0.3144    1.0000 </r>
       <r>    0.4639    1.0000 </r>
       <r>    0.5217    1.0000 </r>
       <r>    0.5725    1.0000 </r>
       <r>    0.6195    1.0000 </r>
       <r>    0.6404    1.0000 </r>
       <r>    0.6622    1.0000 </r>
       <r>    0.6781    1.0000 </r>
       <r>    0.7077    1.0000 </r>
       <r>    0.7385    1.0000 </r>
       <r>    0.7824    1.0000 </r>
       <r>    0.8908    1.0000 </r>
       <r>    0.9362    1.0000 </r>
       <r>    1.0204    1.0000 </r>
       <r>    1.0398    1.0000 </r>
       <r>    1.1068    1.0000 </r>
       <r>    1.1566    1.0000 </r>
       <r>    1.1980    1.0000 </r>
       <r>    1.2256    1.0000 </r>
       <r>    1.2819    1.0000 </r>
       <r>    1.2927    1.0000 </r>
       <r>    1.3373    1.0000 </r>
       <r>    1.3770    1.0000 </r>
       <r>    1.4058    1.0000 </r>
       <r>    1.4811    1.0000 </r>
       <r>    1.4963    1.0000 </r>
       <r>    1.5271    1.0000 </r>
       <r>    1.5531    1.0000 </r>
       <r>    1.6066    1.0000 </r>
       <r>    1.6535    1.0000 </r>
       <r>    1.6610    1.0000 </r>
       <r>    1.7500    1.0000 </r>
       <r>    1.7781    1.0000 </r>
       <r>    1.8123    1.0000 </r>
       <r>    1.8811    1.0000 </r>
       <r>    1.9111    1.0000 </r>
       <r>    1.9888    1.0000 </r>
       <r>    2.0352    1.0000 </r>
       <r>    2.0822    1.0000 </r>
       <r>    2.0993    1.0000 </r>
       <r>    2.1394    1.0000 </r>
       <r>    2.1756    1.0000 </r>
       <r>    2.2172    1.0000 </r>
       <r>    2.2684    1.0000 </r>
       <r>    2.3187    1.0000 </r>
       <r>    2.3548    1.0000 </r>
       <r>    2.3786    1.0000 </r>
       <r>    2.4518    1.0000 </r>
       <r>    2.5149    1.0000 </r>
       <r>    2.5396    1.0000 </r>
       <r>    2.5854    1.0000 </r>
       <r>    2.6262    1.0000 </r>
       <r>    2.6495    1.0000 </r>
       <r>    2.6721    1.0000 </r>
       <r>    2.7012    1.0000 </r>
       <r>    2.7472    1.0000 </r>
       <r>    2.7670    1.0000 </r>
       <r>    2.7879    1.0000 </r>
       <r>    2.8317    1.0000 </r>
       <r>    2.8491    1.0000 </r>
       <r>    2.9291    1.0000 </r>
       <r>    2.9329    1.0000 </r>
       <r>    2.9639    1.0000 </r>
       <r>    3.0106    1.0000 </r>
       <r>    3.0178    1.0000 </r>
       <r>    3.1094    1.0000 </r>
       <r>    3.1460    1.0000 </r>
       <r>    3.1755    1.0000 </r>
       <r>    3.2072    1.0000 </r>
       <r>    3.2648    1.0000 </r>
       <r>    3.2963    1.0000 </r>
       <r>    3.3386    1.0000 </r>
       <r>    3.3619    1.0000 </r>
       <r>    3.5577    1.0000 </r>
       <r>    3.5828    1.0000 </r>
       <r>    3.5886    1.0000 </r>
       <r>    3.6139    1.0000 </r>
       <r>    3.6222    1.0000 </r>
       <r>    3.6405    1.0000 </r>
       <r>    3.6634    1.0000 </r>
       <r>    3.8088    1.0000 </r>
       <r>    5.7004    0.0000 </r>
       <r>    5.7158    0.0000 </r>
       <r>    5.7181    0.0000 </r>
       <r>    5.7296    0.0000 </r>
       <r>    5.8035    0.0000 </r>
       <r>    5.8049    0.0000 </r>
       <r>    5.8191    0.0000 </r>
       <r>    5.8268    0.0000 </r>
       <r>    7.2268    0.0000 </r>
       <r>    7.2626    0.0000 </r>
       <r>    7.3122    0.0000 </r>
       <r>    7.3413    0.0000 </r>
       <r>    7.3899    0.0000 </r>
       <r>    7.4309    0.0000 </r>
       <r>    7.4568    0.0000 </r>
       <r>    7.4608    0.0000 </r>
       <r>    7.5007    0.0000 </r>
       <r>    7.5206    0.0000 </r>
       <r>    7.5404    0.0000 </r>
       <r>    7.5689    0.0000 </r>
       <r>    7.8359    0.0000 </r>
       <r>    7.8518    0.0000 </r>
       <r>    7.8960    0.0000 </r>
       <r>    7.9004    0.0000 </r>
       <r>    7.9103    0.0000 </r>
       <r>    7.9238    0.0000 </r>
       <r>    7.9437    0.0000 </r>
       <r>    7.9908    0.0000 </r>
       <r>    8.0482    0.0000 </r>
       <r>    8.0792    0.0000 </r>
       <r>    8.1847    0.0000 </r>
       <r>    8.2243    0.0000 </r>
       <r>    8.3625    0.0000 </r>
       <r>    8.4203    0.0000 </r>
       <r>    8.5547    0.0000 </r>
       <r>    8.6534    0.0000 </r>
       <r>    8.6953    0.0000 </r>
       <r>    8.7065    0.0000 </r>
       <r>    8.7923    0.0000 </r>
       <r>    8.7980    0.0000 </r>
       <r>    8.8591    0.0000 </r>
       <r>    8.8679    0.0000 </r>
       <r>    8.9643    0.0000 </r>
       <r>    8.9700    0.0000 </r>
       <r>    9.2021    0.0000 </r>
       <r>    9.2407    0.0000 </r>
       <r>    9.3794    0.0000 </r>
       <r>    9.4687    0.0000 </r>
       <r>    9.5108    0.0000 </r>
       <r>    9.6774    0.0000 </r>
       <r>   10.2958    0.0000 </r>
       <r>   10.3049    0.0000 </r>
       <r>   10.4632    0.0000 </r>
       <r>   10.5397    0.0000 </r>
       <r>   10.5486    0.0000 </r>
       <r>   10.5859    0.0000 </r>
       <r>   10.7278    0.0000 </r>
       <r>   10.7567    0.0000 </r>
       <r>   10.8059    0.0000 </r>
       <r>   10.8246    0.0000 </r>
       <r>   10.8268    0.0000 </r>
       <r>   10.8681    0.0000 </r>
       <r>   10.9322    0.0000 </r>
       <r>   10.9825    0.0000 </r>
       <r>   11.2495    0.0000 </r>
       <r>   11.2929    0.0000 </r>
       <r>   11.3306    0.0000 </r>
       <r>   11.3613    0.0000 </r>
       <r>   11.4130    0.0000 </r>
       <r>   11.4586    0.0000 </r>
       <r>   11.4937    0.0000 </r>
       <r>   11.5086    0.0000 </r>
      </set>
      <set comment="kpoint 3">
       <r>  -40.2065    1.0000 </r>
       <r>  -40.0579    1.0000 </r>
       <r>  -40.0310    1.0000 </r>
       <r>  -39.8928    1.0000 </r>
       <r>  -39.8291    1.0000 </r>
       <r>  -39.7546    1.0000 </r>
       <r>  -39.7380    1.0000 </r>
       <r>  -39.6213    1.0000 </r>
       <r>  -39.5957    1.0000 </r>
       <r>  -39.5664    1.0000 </r>
       <r>  -39.3806    1.0000 </r>
       <r>  -39.3803    1.0000 </r>
       <r>  -18.9121    1.0000 </r>
       <r>  -18.8951    1.0000 </r>
       <r>  -18.8399    1.0000 </r>
       <r>  -18.8329    1.0000 </r>
       <r>  -18.8256    1.0000 </r>
       <r>  -18.8244    1.0000 </r>
       <r>  -18.8204    1.0000 </r>
       <r>  -18.8125    1.0000 </r>
       <r>  -18.7549    1.0000 </r>
       <r>  -18.7542    1.0000 </r>
       <r>  -18.7474    1.0000 </r>
       <r>  -18.7462    1.0000 </r>
       <r>  -18.7371    1.0000 </r>
       <r>  -18.7246    1.0000 </r>
       <r>  -18.7245    1.0000 </r>
       <r>  -18.7029    1.0000 </r>
       <r>  -18.6930    1.0000 </r>
       <r>  -18.6832    1.0000 </r>
       <r>  -18.6762    1.0000 </r>
       <r>  -18.6754    1.0000 </r>
       <r>  -18.6634    1.0000 </r>
       <r>  -18.6578    1.0000 </r>
       <r>  -18.6451    1.0000 </r>
       <r>  -18.6448    1.0000 </r>
       <r>  -18.6412    1.0000 </r>
       <r>  -18.6394    1.0000 </r>
       <r>  -18.6391    1.0000 </r>
       <r>  -18.6354    1.0000 </r>
       <r>  -18.6300    1.0000 </r>
       <r>  -18.6273    1.0000 </r>
       <r>  -18.6200    1.0000 </r>
       <r>  -18.6186    1.0000 </r>
       <r>  -18.6139    1.0000 </r>
       <r>  -18.6118    1.0000 </r>
       <r>  -18.6079    1.0000 </r>
       <r>  -18.6048    1.0000 </r>
       <r>  -18.5980    1.0000 </r>
       <r>  -18.5944    1.0000 </r>
       <r>  -18.5403    1.0000 </r>
       <r>  -18.5358    1.0000 </r>
       <r>  -18.5311    1.0000 </r>
       <r>  -18.5270    1.0000 </r>
       <r>  -18.5202    1.0000 </r>
       <r>  -18.5189    1.0000 </r>
       <r>  -18.5181    1.0000 </r>
       <r>  -18.5139    1.0000 </r>
       <r>  -18.5079    1.0000 </r>
       <r>  -18.5044    1.0000 </r>
       <r>  -18.4843    1.0000 </r>
       <r>  -18.4820    1.0000 </r>
       <r>  -18.4731    1.0000 </r>
       <r>  -18.4587    1.0000 </r>
       <r>  -18.4533    1.0000 </r>
       <r>  -18.4521    1.0000 </r>
       <r>  -18.4494    1.0000 </r>
       <r>  -18.4490    1.0000 </r>
       <r>  -18.4401    1.0000 </r>
       <r>  -18.4282    1.0000 </r>
       <r>  -18.4275    1.0000 </r>
       <r>  -18.4159    1.0000 </r>
       <r>  -18.3781    1.0000 </r>
       <r>  -18.3725    1.0000 </r>
       <r>  -18.3668    1.0000 </r>
       <r>  -18.3668    1.0000 </r>
       <r>  -18.3617    1.0000 </r>
       <r>  -18.3594    1.0000 </r>
       <r>  -18.3576    1.0000 </r>
       <r>  -18.3554    1.0000 </r>
       <r>  -18.3478    1.0000 </r>
       <r>  -18.3379    1.0000 </r>
       <r>  -18.2807    1.0000 </r>
       <r>  -18.2705    1.0000 </r>
       <r>  -18.2348    1.0000 </r>
       <r>  -18.2260    1.0000 </r>
       <r>  -18.2209    1.0000 </r>
       <r>  -18.2124    1.0000 </r>
       <r>  -18.1654    1.0000 </r>
       <r>  -18.1561    1.0000 </r>
       <r>  -18.1519    1.0000 </r>
       <r>  -18.1417    1.0000 </r>
       <r>  -13.5675    1.0000 </r>
       <r>  -13.4541    1.0000 </r>
       <r>  -13.3789    1.0000 </r>
       <r>  -13.3655    1.0000 </r>
       <r>  -12.8105    1.0000 </r>
       <r>  -12.7645    1.0000 </r>
       <r>  -12.7231    1.0000 </r>
       <r>  -12.7039    1.0000 </r>
       <r>  -12.6439    1.0000 </r>
       <r>  -12.6305    1.0000 </r>
       <r>  -12.5492    1.0000 </r>
       <r>  -12.4995    1.0000 </r>
       <r>  -12.0274    1.0000 </r>
       <r>  -11.9848    1.0000 </r>
       <r>  -11.9256    1.0000 </r>
       <r>  -11.8831    1.0000 </r>
       <r>   -9.2867    1.0000 </r>
       <r>   -9.0082    1.0000 </r>
       <r>   -8.5505    1.0000 </r>
       <r>   -8.5067    1.0000 </r>
       <r>   -8.4465    1.0000 </r>
       <r>   -8.4061    1.0000 </r>
       <r>   -8.2869    1.0000 </r>
       <r>   -8.2454    1.0000 </r>
       <r>   -8.1843    1.0000 </r>
       <r>   -8.1482    1.0000 </r>
       <r>   -8.0073    1.0000 </r>
       <r>   -7.9943    1.0000 </r>
       <r>   -7.9687    1.0000 </r>
       <r>   -7.9541    1.0000 </r>
       <r>   -7.3285    1.0000 </r>
       <r>   -7.3208    1.0000 </r>
       <r>   -6.3346    1.0000 </r>
       <r>   -6.3321    1.0000 </r>
       <r>   -6.3122    1.0000 </r>
       <r>   -6.3100    1.0000 </r>
       <r>   -5.5118    1.0000 </r>
       <r>   -5.4688    1.0000 </r>
       <r>   -5.4325    1.0000 </r>
       <r>   -5.3554    1.0000 </r>
       <r>   -5.2935    1.0000 </r>
       <r>   -5.2281    1.0000 </r>
       <r>   -5.1552    1.0000 </r>
       <r>   -5.0838    1.0000 </r>
       <r>   -4.9906    1.0000 </r>
       <r>   -4.9385    1.0000 </r>
       <r>   -3.8432    1.0000 </r>
       <r>   -3.5343    1.0000 </r>
       <r>   -1.3089    1.0000 </r>
       <r>   -1.2653    1.0000 </r>
       <r>   -1.1827    1.0000 </r>
       <r>   -1.0536    1.0000 </r>
       <r>   -0.4180    1.0000 </r>
       <r>   -0.4037    1.0000 </r>
       <r>   -0.3850    1.0000 </r>
       <r>   -0.3665    1.0000 </r>
       <r>   -0.3480    1.0000 </r>
       <r>   -0.3207    1.0000 </r>
       <r>   -0.2373    1.0000 </r>
       <r>   -0.1991    1.0000 </r>
       <r>   -0.1039    1.0000 </r>
       <r>   -0.0175    1.0000 </r>
       <r>    0.0445    1.0000 </r>
       <r>    0.1213    1.0000 </r>
       <r>    0.2076    1.0000 </r>
       <r>    0.3182    1.0000 </r>
       <r>    0.4363    1.0000 </r>
       <r>    0.4607    1.0000 </r>
       <r>    0.5155    1.0000 </r>
       <r>    0.6354    1.0000 </r>
       <r>    0.6979    1.0000 </r>
       <r>    0.7742    1.0000 </r>
       <r>    0.8097    1.0000 </r>
       <r>    0.8285    1.0000 </r>
       <r>    0.8600    1.0000 </r>
       <r>    0.9827    1.0000 </r>
       <r>    1.0369    1.0000 </r>
       <r>    1.1296    1.0000 </r>
       <r>    1.1754    1.0000 </r>
       <r>    1.1911    1.0000 </r>
       <r>    1.3006    1.0000 </r>
       <r>    1.3267    1.0000 </r>
       <r>    1.3712    1.0000 </r>
       <r>    1.4157    1.0000 </r>
       <r>    1.4239    1.0000 </r>
       <r>    1.4722    1.0000 </r>
       <r>    1.5614    1.0000 </r>
       <r>    1.5982    1.0000 </r>
       <r>    1.6203    1.0000 </r>
       <r>    1.7257    1.0000 </r>
       <r>    1.7918    1.0000 </r>
       <r>    1.8096    1.0000 </r>
       <r>    1.8434    1.0000 </r>
       <r>    1.9004    1.0000 </r>
       <r>    1.9167    1.0000 </r>
       <r>    1.9748    1.0000 </r>
       <r>    2.0083    1.0000 </r>
       <r>    2.0326    1.0000 </r>
       <r>    2.0965    1.0000 </r>
       <r>    2.1313    1.0000 </r>
       <r>    2.1988    1.0000 </r>
       <r>    2.2770    1.0000 </r>
       <r>    2.3129    1.0000 </r>
       <r>    2.3682    1.0000 </r>
       <r>    2.4493    1.0000 </r>
       <r>    2.4986    1.0000 </r>
       <r>    2.5499    1.0000 </r>
       <r>    2.5570    1.0000 </r>
       <r>    2.6022    1.0000 </r>
       <r>    2.6086    1.0000 </r>
       <r>    2.6125    1.0000 </r>
       <r>    2.6172    1.0000 </r>
       <r>    2.6316    1.0000 </r>
       <r>    2.6615    1.0000 </r>
       <r>    2.7075    1.0000 </r>
       <r>    2.7258    1.0000 </r>
       <r>    2.7510    1.0000 </r>
       <r>    2.7631    1.0000 </r>
       <r>    2.8271    1.0000 </r>
       <r>    2.8794    1.0000 </r>
       <r>    2.8925    1.0000 </r>
       <r>    2.9596    1.0000 </r>
       <r>    2.9776    1.0000 </r>
       <r>    2.9953    1.0000 </r>
       <r>    3.0125    1.0000 </r>
       <r>    3.0509    1.0000 </r>
       <r>    3.0748    1.0000 </r>
       <r>    3.1124    1.0000 </r>
       <r>    3.1369    1.0000 </r>
       <r>    3.1853    1.0000 </r>
       <r>    3.2480    1.0000 </r>
       <r>    3.3377    1.0000 </r>
       <r>    3.3828    1.0000 </r>
       <r>    3.3985    1.0000 </r>
       <r>    3.4664    1.0000 </r>
       <r>    3.4806    1.0000 </r>
       <r>    3.4983    1.0000 </r>
       <r>    3.5175    1.0000 </r>
       <r>    3.5831    1.0000 </r>
       <r>    3.6741    1.0000 </r>
       <r>    4.2688    1.0000 </r>
       <r>    4.2984    1.0000 </r>
       <r>    4.3006    1.0000 </r>
       <r>    4.3121    1.0000 </r>
       <r>    5.1846    0.0000 </r>
       <r>    5.2047    0.0000 </r>
       <r>    5.2242    0.0000 </r>
       <r>    5.2438    0.0000 </r>
       <r>    5.7920    0.0000 </r>
       <r>    5.8121    0.0000 </r>
       <r>    5.8271    0.0000 </r>
       <r>    5.8448    0.0000 </r>
       <r>    6.1829    0.0000 </r>
       <r>    6.1977    0.0000 </r>
       <r>    6.2221    0.0000 </r>
       <r>    6.2304    0.0000 </r>
       <r>    6.2640    0.0000 </r>
       <r>    6.2831    0.0000 </r>
       <r>    6.3113    0.0000 </r>
       <r>    6.3282    0.0000 </r>
       <r>    6.7551    0.0000 </r>
       <r>    6.8706    0.0000 </r>
       <r>    7.0220    0.0000 </r>
       <r>    7.0675    0.0000 </r>
       <r>    7.2530    0.0000 </r>
       <r>    7.3060    0.0000 </r>
       <r>    7.5385    0.0000 </r>
       <r>    7.6517    0.0000 </r>
       <r>    7.8324    0.0000 </r>
       <r>    7.8575    0.0000 </r>
       <r>    7.9629    0.0000 </r>
       <r>    8.0265    0.0000 </r>
       <r>    8.1269    0.0000 </r>
       <r>    8.3246    0.0000 </r>
       <r>    8.3796    0.0000 </r>
       <r>    8.5019    0.0000 </r>
       <r>    8.7550    0.0000 </r>
       <r>    8.7731    0.0000 </r>
       <r>    8.9709    0.0000 </r>
       <r>    8.9786    0.0000 </r>
       <r>    9.0067    0.0000 </r>
       <r>    9.0951    0.0000 </r>
       <r>    9.1122    0.0000 </r>
       <r>    9.1329    0.0000 </r>
       <r>    9.1474    0.0000 </r>
       <r>    9.1816    0.0000 </r>
       <r>    9.1882    0.0000 </r>
       <r>    9.2449    0.0000 </r>
       <r>    9.4988    0.0000 </r>
       <r>    9.5245    0.0000 </r>
       <r>    9.7346    0.0000 </r>
       <r>    9.7583    0.0000 </r>
       <r>    9.7728    0.0000 </r>
       <r>    9.7820    0.0000 </r>
[...]
       <r>   11.3207    0.0000 </r>
       <r>   11.3667    0.0000 </r>
       <r>   11.4983    0.0000 </r>
       <r>   11.5350    0.0000 </r>
      </set>
     </set>
    </set>
   </array>
  </eigenvalues>
  <separator name="orbital magnetization" >
   <v name="MAGDIPOLOUT">      0.00000000      0.00000000      0.00000000</v>
  </separator>
  <dos>
   <i name="efermi">      4.36967425 </i>
   <total>
    <array>
     <dimension dim="1">gridpoints</dimension>
     <dimension dim="2">spin</dimension>
     <field>energy</field>
     <field>total</field>
     <field>integrated</field>
     <set>
      <set comment="spin 1">
       <r>   -42.8309     0.0000     0.0000 </r>
       <r>   -42.6385     0.0000     0.0000 </r>
       <r>   -42.4460     0.0000     0.0000 </r>
       <r>   -42.2536     0.0000     0.0000 </r>
       <r>   -42.0611     0.0000     0.0000 </r>
       <r>   -41.8686     0.0000     0.0000 </r>
       <r>   -41.6762     0.0000     0.0000 </r>
       <r>   -41.4837     0.0000     0.0000 </r>
       <r>   -41.2913     0.0000     0.0000 </r>
       <r>   -41.0988     0.0000     0.0000 </r>
       <r>   -40.9063     0.0000     0.0000 </r>
       <r>   -40.7139     0.0000     0.0000 </r>
       <r>   -40.5214     0.0000     0.0000 </r>
       <r>   -40.3290     0.0000     0.0000 </r>
       <r>   -40.1365     0.0000     2.0000 </r>
       <r>   -39.9440     0.0000     6.0000 </r>
       <r>   -39.7516     0.0000    12.0000 </r>
       <r>   -39.5591     0.0000    20.0000 </r>
       <r>   -39.3667     0.0000    24.0000 </r>
       <r>   -39.1742     0.0000    24.0000 </r>
       <r>   -38.9818     0.0000    24.0000 </r>
       <r>   -38.7893     0.0000    24.0000 </r>
       <r>   -38.5968     0.0000    24.0000 </r>
       <r>   -38.4044     0.0000    24.0000 </r>
       <r>   -38.2119     0.0000    24.0000 </r>
       <r>   -38.0195     0.0000    24.0000 </r>
       <r>   -37.8270     0.0000    24.0000 </r>
       <r>   -37.6345     0.0000    24.0000 </r>
       <r>   -37.4421     0.0000    24.0000 </r>
       <r>   -37.2496     0.0000    24.0000 </r>
       <r>   -37.0572     0.0000    24.0000 </r>
       <r>   -36.8647     0.0000    24.0000 </r>
       <r>   -36.6722     0.0000    24.0000 </r>
       <r>   -36.4798     0.0000    24.0000 </r>
       <r>   -36.2873     0.0000    24.0000 </r>
       <r>   -36.0949     0.0000    24.0000 </r>
       <r>   -35.9024     0.0000    24.0000 </r>
       <r>   -35.7099     0.0000    24.0000 </r>
       <r>   -35.5175     0.0000    24.0000 </r>
       <r>   -35.3250     0.0000    24.0000 </r>
       <r>   -35.1326     0.0000    24.0000 </r>
       <r>   -34.9401     0.0000    24.0000 </r>
       <r>   -34.7477     0.0000    24.0000 </r>
       <r>   -34.5552     0.0000    24.0000 </r>
       <r>   -34.3627     0.0000    24.0000 </r>
       <r>   -34.1703     0.0000    24.0000 </r>
       <r>   -33.9778     0.0000    24.0000 </r>
       <r>   -33.7854     0.0000    24.0000 </r>
       <r>   -33.5929     0.0000    24.0000 </r>
       <r>   -33.4004     0.0000    24.0000 </r>
       <r>   -33.2080     0.0000    24.0000 </r>
       <r>   -33.0155     0.0000    24.0000 </r>
       <r>   -32.8231     0.0000    24.0000 </r>
       <r>   -32.6306     0.0000    24.0000 </r>
       <r>   -32.4381     0.0000    24.0000 </r>
       <r>   -32.2457     0.0000    24.0000 </r>
       <r>   -32.0532     0.0000    24.0000 </r>
       <r>   -31.8608     0.0000    24.0000 </r>
       <r>   -31.6683     0.0000    24.0000 </r>
       <r>   -31.4758     0.0000    24.0000 </r>
       <r>   -31.2834     0.0000    24.0000 </r>
       <r>   -31.0909     0.0000    24.0000 </r>
       <r>   -30.8985     0.0000    24.0000 </r>
       <r>   -30.7060     0.0000    24.0000 </r>
       <r>   -30.5136     0.0000    24.0000 </r>
       <r>   -30.3211     0.0000    24.0000 </r>
       <r>   -30.1286     0.0000    24.0000 </r>
       <r>   -29.9362     0.0000    24.0000 </r>
       <r>   -29.7437     0.0000    24.0000 </r>
       <r>   -29.5513     0.0000    24.0000 </r>
       <r>   -29.3588     0.0000    24.0000 </r>
       <r>   -29.1663     0.0000    24.0000 </r>
       <r>   -28.9739     0.0000    24.0000 </r>
       <r>   -28.7814     0.0000    24.0000 </r>
       <r>   -28.5890     0.0000    24.0000 </r>
       <r>   -28.3965     0.0000    24.0000 </r>
       <r>   -28.2040     0.0000    24.0000 </r>
       <r>   -28.0116     0.0000    24.0000 </r>
       <r>   -27.8191     0.0000    24.0000 </r>
       <r>   -27.6267     0.0000    24.0000 </r>
       <r>   -27.4342     0.0000    24.0000 </r>
       <r>   -27.2417     0.0000    24.0000 </r>
       <r>   -27.0493     0.0000    24.0000 </r>
       <r>   -26.8568     0.0000    24.0000 </r>
       <r>   -26.6644     0.0000    24.0000 </r>
       <r>   -26.4719     0.0000    24.0000 </r>
       <r>   -26.2794     0.0000    24.0000 </r>
       <r>   -26.0870     0.0000    24.0000 </r>
       <r>   -25.8945     0.0000    24.0000 </r>
       <r>   -25.7021     0.0000    24.0000 </r>
       <r>   -25.5096     0.0000    24.0000 </r>
       <r>   -25.3172     0.0000    24.0000 </r>
       <r>   -25.1247     0.0000    24.0000 </r>
       <r>   -24.9322     0.0000    24.0000 </r>
       <r>   -24.7398     0.0000    24.0000 </r>
       <r>   -24.5473     0.0000    24.0000 </r>
       <r>   -24.3549     0.0000    24.0000 </r>
       <r>   -24.1624     0.0000    24.0000 </r>
       <r>   -23.9699     0.0000    24.0000 </r>
       <r>   -23.7775     0.0000    24.0000 </r>
       <r>   -23.5850     0.0000    24.0000 </r>
       <r>   -23.3926     0.0000    24.0000 </r>
       <r>   -23.2001     0.0000    24.0000 </r>
       <r>   -23.0076     0.0000    24.0000 </r>
       <r>   -22.8152     0.0000    24.0000 </r>
       <r>   -22.6227     0.0000    24.0000 </r>
       <r>   -22.4303     0.0000    24.0000 </r>
       <r>   -22.2378     0.0000    24.0000 </r>
       <r>   -22.0453     0.0000    24.0000 </r>
       <r>   -21.8529     0.0000    24.0000 </r>
       <r>   -21.6604     0.0000    24.0000 </r>
       <r>   -21.4680     0.0000    24.0000 </r>
       <r>   -21.2755     0.0000    24.0000 </r>
       <r>   -21.0831     0.0000    24.0000 </r>
       <r>   -20.8906     0.0000    24.0000 </r>
       <r>   -20.6981     0.0000    24.0000 </r>
       <r>   -20.5057     0.0000    24.0000 </r>
       <r>   -20.3132     0.0000    24.0000 </r>
       <r>   -20.1208     0.0000    24.0000 </r>
       <r>   -19.9283     0.0000    24.0000 </r>
       <r>   -19.7358     0.0000    24.0000 </r>
       <r>   -19.5434     0.0000    24.0000 </r>
       <r>   -19.3509     0.0000    24.0000 </r>
       <r>   -19.1585     0.0000    24.0000 </r>
       <r>   -18.9660     0.0000    24.0000 </r>
       <r>   -18.7735     0.0000    40.0000 </r>
       <r>   -18.5811     0.0000   100.0000 </r>
       <r>   -18.3886     0.0000   144.0000 </r>
       <r>   -18.1962     0.0000   176.0000 </r>
       <r>   -18.0037     0.0000   184.0000 </r>
       <r>   -17.8112     0.0000   184.0000 </r>
       <r>   -17.6188     0.0000   184.0000 </r>
       <r>   -17.4263     0.0000   184.0000 </r>
       <r>   -17.2339     0.0000   184.0000 </r>
       <r>   -17.0414     0.0000   184.0000 </r>
       <r>   -16.8489     0.0000   184.0000 </r>
       <r>   -16.6565     0.0000   184.0000 </r>
       <r>   -16.4640     0.0000   184.0000 </r>
       <r>   -16.2716     0.0000   184.0000 </r>
       <r>   -16.0791     0.0000   184.0000 </r>
       <r>   -15.8867     0.0000   184.0000 </r>
       <r>   -15.6942     0.0000   184.0000 </r>
       <r>   -15.5017     0.0000   184.0000 </r>
       <r>   -15.3093     0.0000   184.0000 </r>
       <r>   -15.1168     0.0000   184.0000 </r>
       <r>   -14.9244     0.0000   184.0000 </r>
       <r>   -14.7319     0.0000   184.0000 </r>
       <r>   -14.5394     0.0000   184.0000 </r>
       <r>   -14.3470     0.0000   184.0000 </r>
       <r>   -14.1545     0.0000   184.0000 </r>
       <r>   -13.9621     0.0000   184.0000 </r>
       <r>   -13.7696     0.0000   184.0000 </r>
       <r>   -13.5771     0.0000   184.0000 </r>
       <r>   -13.3847     0.0000   188.0000 </r>
       <r>   -13.1922     0.0000   192.0000 </r>
       <r>   -12.9998     0.0000   192.0000 </r>
       <r>   -12.8073     0.0000   194.0000 </r>
       <r>   -12.6148     0.0000   204.0000 </r>
       <r>   -12.4224     0.0000   208.0000 </r>
       <r>   -12.2299     0.0000   208.0000 </r>
       <r>   -12.0375     0.0000   208.0000 </r>
       <r>   -11.8450     0.0000   216.0000 </r>
       <r>   -11.6526     0.0000   216.0000 </r>
       <r>   -11.4601     0.0000   216.0000 </r>
       <r>   -11.2676     0.0000   216.0000 </r>
       <r>   -11.0752     0.0000   216.0000 </r>
       <r>   -10.8827     0.0000   216.0000 </r>
       <r>   -10.6903     0.0000   216.0000 </r>
       <r>   -10.4978     0.0000   216.0000 </r>
       <r>   -10.3053     0.0000   216.0000 </r>
       <r>   -10.1129     0.0000   216.0000 </r>
       <r>    -9.9204     0.0000   216.0000 </r>
       <r>    -9.7280     0.0000   216.0000 </r>
       <r>    -9.5355     0.0000   216.0000 </r>
       <r>    -9.3430     0.0000   216.0000 </r>
       <r>    -9.1506    10.8153   216.7878 </r>
       <r>    -8.9581    11.5825   219.8268 </r>
       <r>    -8.7657    24.5799   221.3656 </r>
       <r>    -8.5732    11.2840   224.2564 </r>
       <r>    -8.3807    37.3446   227.8088 </r>
       <r>    -8.1883     2.1874   232.0113 </r>
       <r>    -7.9958    29.8931   236.5067 </r>
       <r>    -7.8034    16.5965   240.6485 </r>
       <r>    -7.6109     1.0684   243.9982 </r>
       <r>    -7.4185    10.8843   247.4773 </r>
       <r>    -7.2260     0.0000   248.0000 </r>
       <r>    -7.0335     0.0000   248.0000 </r>
       <r>    -6.8411     0.0000   248.0000 </r>
       <r>    -6.6486     0.0000   248.0000 </r>
       <r>    -6.4562     0.0000   248.0000 </r>
       <r>    -6.2637     7.4382   248.2539 </r>
       <r>    -6.0712    26.8024   251.6896 </r>
       <r>    -5.8788    12.6383   255.8732 </r>
       <r>    -5.6863    31.9704   260.0813 </r>
       <r>    -5.4939    18.2672   264.2569 </r>
       <r>    -5.3014    21.7889   268.1027 </r>
       <r>    -5.1089     9.4306   271.3089 </r>
       <r>    -4.9165     4.0007   272.1606 </r>
       <r>    -4.7240     8.0148   273.5534 </r>
       <r>    -4.5316    10.5817   275.2983 </r>
       <r>    -4.3391     6.0566   276.9685 </r>
       <r>    -4.1466     7.3191   278.2898 </r>
       <r>    -3.9542     4.1167   279.4074 </r>
       <r>    -3.7617     1.2171   279.8848 </r>
       <r>    -3.5693     0.0484   279.9994 </r>
       <r>    -3.3768     0.0000   280.0000 </r>
       <r>    -3.1843     0.0000   280.0000 </r>
       <r>    -2.9919     0.0000   280.0000 </r>
       <r>    -2.7994     0.0000   280.0000 </r>
       <r>    -2.6070     0.0000   280.0000 </r>
       <r>    -2.4145     0.0000   280.0000 </r>
       <r>    -2.2221     0.0000   280.0000 </r>
       <r>    -2.0296     0.0000   280.0000 </r>
       <r>    -1.8371     0.0000   280.0000 </r>
       <r>    -1.6447     0.0000   280.0000 </r>
       <r>    -1.4522     0.0000   280.0000 </r>
       <r>    -1.2598     3.9779   280.1821 </r>
       <r>    -1.0673    10.8529   281.7392 </r>
       <r>    -0.8748    13.0175   284.0672 </r>
       <r>    -0.6824     8.1994   286.2051 </r>
       <r>    -0.4899    10.2685   287.5001 </r>
       <r>    -0.2975    20.6262   290.5115 </r>
       <r>    -0.1050    36.6852   295.5249 </r>
       <r>     0.0875    37.8963   303.4264 </r>
       <r>     0.2799    39.1624   310.0800 </r>
       <r>     0.4724    38.5532   317.3027 </r>
       <r>     0.6648    37.0732   324.5950 </r>
       <r>     0.8573    30.5818   331.0243 </r>
       <r>     1.0498    32.2730   337.5323 </r>
       <r>     1.2422    45.0746   346.5665 </r>
       <r>     1.4347    41.2836   356.6847 </r>
       <r>     1.6271    42.7868   365.8946 </r>
       <r>     1.8196    49.7249   374.4774 </r>
       <r>     2.0120    37.6978   383.3545 </r>
       <r>     2.2045    43.4113   391.1998 </r>
       <r>     2.3970    48.3968   399.6358 </r>
       <r>     2.5894    65.8857   410.7518 </r>
       <r>     2.7819    66.1180   422.9938 </r>
       <r>     2.9743    69.8708   434.2736 </r>
       <r>     3.1668    48.2515   446.2460 </r>
       <r>     3.3593    43.3277   454.8640 </r>
       <r>     3.5517    44.0120   462.0273 </r>
       <r>     3.7442    18.5819   467.3332 </r>
       <r>     3.9366    10.7403   470.1926 </r>
       <r>     4.1291     4.5752   471.6666 </r>
       <r>     4.3216     0.0000   472.0000 </r>
       <r>     4.5140     0.0000   472.0000 </r>
       <r>     4.7065     0.0000   472.0000 </r>
       <r>     4.8989     0.0000   472.0000 </r>
       <r>     5.0914     0.0000   472.0000 </r>
       <r>     5.2839     2.3255   472.1324 </r>
       <r>     5.4763     6.5979   472.9910 </r>
       <r>     5.6688     9.5445   474.6370 </r>
       <r>     5.8612    25.8393   477.8733 </r>
       <r>     6.0537    13.2464   481.1622 </r>
       <r>     6.2462    11.6294   483.5054 </r>
       <r>     6.4386    13.0989   485.8542 </r>
       <r>     6.6311    15.0079   488.5593 </r>
       <r>     6.8235    16.8738   491.6274 </r>
       <r>     7.0160    19.5200   495.1064 </r>
       <r>     7.2084    27.6502   499.5144 </r>
       <r>     7.4009    40.5024   506.1979 </r>
       <r>     7.5934    25.1199   512.9931 </r>
       <r>     7.7858    42.5433   518.9908 </r>
       <r>     7.9783    41.1714   527.3271 </r>
       <r>     8.1707    26.4785   534.1154 </r>
       <r>     8.3632    19.2120   538.2678 </r>
       <r>     8.5557    22.2612   542.0836 </r>
       <r>     8.7481    28.2225   547.1660 </r>
       <r>     8.9406    49.7366   554.8437 </r>
       <r>     9.1330    22.5658   561.3273 </r>
       <r>     9.3255    13.5723   564.5100 </r>
       <r>     9.5180    14.0744   567.1058 </r>
       <r>     9.7104    16.9786   569.9635 </r>
       <r>     9.9029     5.1870   571.9815 </r>
       <r>    10.0953     7.4792   572.9550 </r>
       <r>    10.2878    24.7903   575.8315 </r>
       <r>    10.4803    28.6754   581.2516 </r>
       <r>    10.6727    38.9449   586.9818 </r>
       <r>    10.8652    32.1145   594.4132 </r>
       <r>    11.0576    17.8894   599.3137 </r>
       <r>    11.2501    27.7602   603.0005 </r>
       <r>    11.4425    22.8029   607.8884 </r>
       <r>    11.6350    16.8229   611.8146 </r>
       <r>    11.8275    10.0393   614.3832 </r>
       <r>    12.0199     3.7326   615.7000 </r>
       <r>    12.2124     0.1871   615.9960 </r>
       <r>    12.4048     0.0000   616.0000 </r>
       <r>    12.5973     0.0000   616.0000 </r>
       <r>    12.7898     0.0000   616.0000 </r>
       <r>    12.9822     0.0000   616.0000 </r>
       <r>    13.1747     0.0000   616.0000 </r>
       <r>    13.3671     0.0000   616.0000 </r>
       <r>    13.5596     0.0000   616.0000 </r>
       <r>    13.7521     0.0000   616.0000 </r>
       <r>    13.9445     0.0000   616.0000 </r>
       <r>    14.1370     0.0000   616.0000 </r>
       <r>    14.3294     0.0000   616.0000 </r>
       <r>    14.5219     0.0000   616.0000 </r>
       <r>    14.7144     0.0000   616.0000 </r>
       <r>    14.9068     0.0000   616.0000 </r>
      </set>
     </set>
    </array>
   </total>
  </dos>
 </calculation>
 <structure name="finalpos" >
  <crystal>
   <varray name="basis" >
    <v>      11.17850000       0.00000000       0.00000000 </v>
    <v>       0.00000000       9.57460000       0.00000000 </v>
    <v>       0.00000000       0.00000000      11.18240000 </v>
   </varray>
   <i name="volume">   1196.84853820 </i>
   <varray name="rec_basis" >
    <v>       0.08945744       0.00000000       0.00000000 </v>
    <v>       0.00000000       0.10444301       0.00000000 </v>
    <v>       0.00000000       0.00000000       0.08942624 </v>
   </varray>
  </crystal>
  <varray name="positions" >
   <v>       0.37539000       0.00017000       0.43687000 </v>
   <v>       0.12461000       0.99984000       0.18687000 </v>
   <v>       0.37461000       0.00017000       0.18687000 </v>
   <v>       0.62539000       0.99984000       0.43687000 </v>
   <v>       0.87539000       0.00017000       0.43687000 </v>
   <v>       0.62461000       0.99984000       0.18687000 </v>
   <v>       0.87461000       0.00017000       0.18687000 </v>
   <v>       0.12461000       0.99984000       0.68687000 </v>
   <v>       0.62539000       0.99984000       0.93687000 </v>
   <v>       0.87539000       0.00017000       0.93687000 </v>
   <v>       0.62461000       0.99984000       0.68687000 </v>
   <v>       0.87461000       0.00017000       0.68687000 </v>
   <v>       0.12539000       0.99984000       0.93687000 </v>
   <v>       0.37461000       0.00017000       0.68687000 </v>
   <v>       0.00013000       0.29519000       0.06281000 </v>
   <v>       0.25013000       0.70481000       0.06281000 </v>
   <v>       0.24987000       0.29519000       0.31282000 </v>
   <v>       0.49987000       0.70481000       0.31282000 </v>
   <v>       0.50013000       0.29519000       0.06281000 </v>
   <v>       0.75013000       0.70481000       0.06281000 </v>
   <v>       0.74987000       0.29519000       0.31282000 </v>
   <v>       0.99987000       0.70481000       0.31282000 </v>
   <v>       0.00013000       0.29519000       0.56281000 </v>
   <v>       0.25013000       0.70481000       0.56281000 </v>
   <v>       0.24987000       0.29519000       0.81282000 </v>
   <v>       0.49987000       0.70481000       0.81282000 </v>
   <v>       0.50013000       0.29519000       0.56281000 </v>
   <v>       0.75013000       0.70481000       0.56281000 </v>
   <v>       0.74987000       0.29519000       0.81282000 </v>
   <v>       0.99987000       0.70481000       0.81282000 </v>
   <v>       0.25005000       0.32677000       0.06286000 </v>
   <v>       0.00005000       0.67323000       0.06286000 </v>
   <v>       0.49995000       0.32677000       0.31286000 </v>
   <v>       0.24995000       0.67323000       0.31286000 </v>
   <v>       0.75005000       0.32677000       0.06286000 </v>
   <v>       0.50005000       0.67323000       0.06286000 </v>
   <v>       0.99995000       0.32677000       0.31286000 </v>
   <v>       0.74995000       0.67323000       0.31286000 </v>
   <v>       0.25005000       0.32677000       0.56286000 </v>
   <v>       0.00005000       0.67323000       0.56286000 </v>
   <v>       0.49995000       0.32677000       0.81286000 </v>
   <v>       0.24995000       0.67323000       0.81286000 </v>
   <v>       0.75005000       0.32677000       0.56286000 </v>
   <v>       0.50005000       0.67323000       0.56286000 </v>
   <v>       0.99995000       0.32677000       0.81286000 </v>
   <v>       0.74995000       0.67323000       0.81286000 </v>
   <v>       0.49987000       0.07798000       0.06246000 </v>
   <v>       0.24987000       0.92202000       0.06246000 </v>
   <v>       0.25013000       0.07798000       0.31246000 </v>
   <v>       0.00013000       0.92202000       0.31246000 </v>
   <v>       0.99987000       0.07798000       0.06246000 </v>
   <v>       0.74987000       0.92202000       0.06246000 </v>
   <v>       0.75013000       0.07798000       0.31246000 </v>
   <v>       0.50013000       0.92202000       0.31246000 </v>
   <v>       0.49987000       0.07798000       0.56246000 </v>
   <v>       0.24987000       0.92202000       0.56246000 </v>
   <v>       0.25013000       0.07798000       0.81246000 </v>
   <v>       0.00013000       0.92202000       0.81246000 </v>
   <v>       0.99987000       0.07798000       0.56246000 </v>
   <v>       0.74987000       0.92202000       0.56246000 </v>
   <v>       0.75013000       0.07798000       0.81246000 </v>
   <v>       0.50013000       0.92202000       0.81246000 </v>
  </varray>
 </structure>
</modeling>
