<?xml version="1.0" encoding="ISO-8859-1"?>
<modeling>
 <generator>
  <i name="program" type="string">vasp </i>
  <i name="version" type="string">5.4.4.18Apr17-6-g9f103f2a35  </i>
  <i name="subversion" type="string">(build Jul 31 2017 11:33:29) complex            parallel </i>
  <i name="platform" type="string">LinuxIFC </i>
  <i name="date" type="string">2021 09 29 </i>
  <i name="time" type="string">16:02:27 </i>
 </generator>
 <incar>
  <i type="string" name="SYSTEM"> La2O2S</i>
  <i type="string" name="PREC">normal</i>
  <i type="int" name="NELMIN">     4</i>
  <i type="int" name="IBRION">     2</i>
  <i type="int" name="NFREE">    10</i>
  <i name="EDIFF">      0.00000100</i>
  <i name="EDIFFG">     -0.01000000</i>
  <i type="int" name="NSW">     1</i>
  <i type="int" name="ISIF">     2</i>
  <i name="ENCUT">    600.00000000</i>
  <i name="ENAUG">    900.00000000</i>
  <i type="int" name="ISMEAR">    -5</i>
  <i type="logical" name="LWAVE"> F  </i>
  <i type="logical" name="LCHARG"> F  </i>
  <v type="int" name="KPOINT_BSE">    -1     0     0     0</v>
 </incar>
 <structure name="primitive_cell" >
  <crystal>
   <varray name="basis" >
    <v>      11.17850000       0.00000000       0.00000000 </v>
    <v>       0.00000000       9.57460000       0.00000000 </v>
    <v>       0.00000000       0.00000000      11.18240000 </v>
   </varray>
   <i name="volume">   1196.84853820 </i>
   <varray name="rec_basis" >
    <v>       0.08945744       0.00000000       0.00000000 </v>
    <v>       0.00000000       0.10444301       0.00000000 </v>
    <v>       0.00000000       0.00000000       0.08942624 </v>
   </varray>
  </crystal>
  <varray name="positions" >
   <v>       0.37539000       0.00017000       0.43687000 </v>
   <v>      -0.49987000      -0.07798000       0.31246000 </v>
   <v>       0.25013000       0.07798000       0.31246000 </v>
   <v>       0.49987000       0.07798000      -0.43754000 </v>
   <v>       0.24987000      -0.07798000      -0.43754000 </v>
   <v>      -0.37461000      -0.00016000       0.43687000 </v>
   <v>       0.37461000       0.00017000      -0.31313000 </v>
   <v>       0.49987000      -0.29519000       0.31282000 </v>
   <v>       0.24987000       0.29519000       0.31282000 </v>
   <v>      -0.49987000       0.29519000      -0.43719000 </v>
   <v>       0.25013000      -0.29519000      -0.43719000 </v>
   <v>       0.49995000       0.32677000       0.31286000 </v>
   <v>       0.24995000      -0.32677000       0.31286000 </v>
   <v>      -0.49995000      -0.32677000      -0.43714000 </v>
   <v>       0.25005000       0.32677000      -0.43714000 </v>
   <v>      -0.37539000      -0.00016000      -0.31313000 </v>
   <v>      -0.37539000      -0.00016000       0.18687000 </v>
   <v>       0.12461000      -0.00016000       0.18687000 </v>
   <v>       0.12461000      -0.00016000      -0.31313000 </v>
   <v>       0.49987000       0.07798000       0.06246000 </v>
   <v>      -0.24987000       0.07798000       0.31246000 </v>
   <v>      -0.25013000      -0.07798000      -0.43754000 </v>
   <v>       0.24987000      -0.07798000       0.06246000 </v>
   <v>       0.00013000      -0.07798000       0.31246000 </v>
   <v>      -0.49987000      -0.07798000      -0.18754000 </v>
   <v>      -0.00013000       0.07798000      -0.43754000 </v>
   <v>       0.25013000       0.07798000      -0.18754000 </v>
   <v>      -0.49987000       0.29519000       0.06281000 </v>
   <v>      -0.25013000       0.29519000       0.31282000 </v>
   <v>       0.25013000      -0.29519000       0.06281000 </v>
   <v>      -0.24987000      -0.29519000      -0.43719000 </v>
   <v>      -0.00013000      -0.29519000       0.31282000 </v>
   <v>       0.00013000       0.29519000      -0.43719000 </v>
   <v>       0.49987000      -0.29519000      -0.18718000 </v>
   <v>       0.24987000       0.29519000      -0.18718000 </v>
   <v>      -0.49995000      -0.32677000       0.06286000 </v>
   <v>       0.25005000       0.32677000       0.06286000 </v>
   <v>      -0.25005000      -0.32677000       0.31286000 </v>
   <v>      -0.24995000       0.32677000      -0.43714000 </v>
   <v>      -0.00005000       0.32677000       0.31286000 </v>
   <v>       0.00005000      -0.32677000      -0.43714000 </v>
   <v>       0.49995000       0.32677000      -0.18714000 </v>
   <v>       0.24995000      -0.32677000      -0.18714000 </v>
   <v>      -0.12461000       0.00017000       0.43687000 </v>
   <v>       0.37539000       0.00017000      -0.06313000 </v>
   <v>      -0.25013000      -0.07798000       0.06246000 </v>
   <v>      -0.00013000       0.07798000       0.06246000 </v>
   <v>      -0.24987000       0.07798000      -0.18754000 </v>
   <v>       0.00013000      -0.07798000      -0.18754000 </v>
   <v>      -0.37461000      -0.00016000      -0.06313000 </v>
   <v>      -0.24987000      -0.29519000       0.06281000 </v>
   <v>       0.00013000       0.29519000       0.06281000 </v>
   <v>      -0.25013000       0.29519000      -0.18718000 </v>
   <v>      -0.00013000      -0.29519000      -0.18718000 </v>
   <v>      -0.24995000       0.32677000       0.06286000 </v>
   <v>       0.00005000      -0.32677000       0.06286000 </v>
   <v>      -0.25005000      -0.32677000      -0.18714000 </v>
   <v>      -0.00005000       0.32677000      -0.18714000 </v>
   <v>      -0.12461000       0.00017000      -0.06313000 </v>
  </varray>
 </structure>
 <varray name="primitive_index" >
  <v type="int" >        1 </v>
  <v type="int" >       51 </v>
  <v type="int" >       46 </v>
  <v type="int" >       52 </v>
  <v type="int" >       53 </v>
  <v type="int" >        2 </v>
  <v type="int" >        4 </v>
  <v type="int" >       15 </v>
  <v type="int" >       14 </v>
  <v type="int" >       24 </v>
  <v type="int" >       21 </v>
  <v type="int" >       30 </v>
  <v type="int" >       31 </v>
  <v type="int" >       41 </v>
  <v type="int" >       36 </v>
  <v type="int" >        6 </v>
  <v type="int" >        9 </v>
  <v type="int" >        7 </v>
  <v type="int" >       10 </v>
  <v type="int" >       44 </v>
  <v type="int" >       50 </v>
  <v type="int" >       57 </v>
  <v type="int" >       45 </v>
  <v type="int" >       47 </v>
  <v type="int" >       59 </v>
  <v type="int" >       56 </v>
  <v type="int" >       54 </v>
  <v type="int" >       16 </v>
  <v type="int" >       18 </v>
  <v type="int" >       13 </v>
  <v type="int" >       25 </v>
  <v type="int" >       19 </v>
  <v type="int" >       20 </v>
  <v type="int" >       23 </v>
  <v type="int" >       22 </v>
  <v type="int" >       33 </v>
  <v type="int" >       28 </v>
  <v type="int" >       35 </v>
  <v type="int" >       40 </v>
  <v type="int" >       34 </v>
  <v type="int" >       37 </v>
  <v type="int" >       38 </v>
  <v type="int" >       39 </v>
  <v type="int" >        8 </v>
  <v type="int" >        3 </v>
  <v type="int" >       49 </v>
  <v type="int" >       48 </v>
  <v type="int" >       58 </v>
  <v type="int" >       55 </v>
  <v type="int" >        5 </v>
  <v type="int" >       17 </v>
  <v type="int" >       12 </v>
  <v type="int" >       26 </v>
  <v type="int" >       27 </v>
  <v type="int" >       32 </v>
  <v type="int" >       29 </v>
  <v type="int" >       43 </v>
  <v type="int" >       42 </v>
  <v type="int" >       11 </v>
 </varray>
 <kpoints>
  <generation param="Gamma">
   <v type="int" name="divisions">       2        2        2 </v>
   <v name="usershift">      0.00000000       0.00000000       0.00000000 </v>
   <v name="genvec1">      0.50000000       0.00000000       0.00000000 </v>
   <v name="genvec2">      0.00000000       0.50000000       0.00000000 </v>
   <v name="genvec3">      0.00000000       0.00000000       0.50000000 </v>
   <v name="shift">      0.00000000       0.00000000       0.00000000 </v>
  </generation>
  <varray name="kpointlist" >
   <v>       0.00000000       0.00000000       0.00000000 </v>
   <v>       0.50000000       0.00000000       0.00000000 </v>
   <v>       0.00000000       0.50000000       0.00000000 </v>
   <v>       0.50000000       0.50000000       0.00000000 </v>
   <v>       0.00000000       0.00000000       0.50000000 </v>
   <v>       0.50000000       0.00000000       0.50000000 </v>
   <v>       0.00000000       0.50000000       0.50000000 </v>
   <v>       0.50000000       0.50000000       0.50000000 </v>
  </varray>
  <varray name="weights" >
   <v>       0.12500000 </v>
   <v>       0.12500000 </v>
   <v>       0.12500000 </v>
   <v>       0.12500000 </v>
   <v>       0.12500000 </v>
   <v>       0.12500000 </v>
   <v>       0.12500000 </v>
   <v>       0.12500000 </v>
  </varray>
  <varray name="tetrahedronlist"  type="int" >
   <v type="int" >        2        1        2        4        5 </v>
   <v type="int" >        2        1        3        4        5 </v>
   <v type="int" >        2        3        4        5        7 </v>
   <v type="int" >        2        2        4        5        6 </v>
   <v type="int" >        2        4        5        6        8 </v>
   <v type="int" >        2        4        5        7        8 </v>
   <v type="int" >        2        1        2        3        6 </v>
   <v type="int" >        2        2        3        4        6 </v>
   <v type="int" >        2        3        4        6        8 </v>
   <v type="int" >        2        1        3        5        6 </v>
   <v type="int" >        2        3        5        6        7 </v>
   <v type="int" >        2        3        6        7        8 </v>
   <v type="int" >        2        2        3        4        7 </v>
   <v type="int" >        2        1        2        3        7 </v>
   <v type="int" >        2        1        2        5        7 </v>
   <v type="int" >        2        2        4        7        8 </v>
   <v type="int" >        2        2        6        7        8 </v>
   <v type="int" >        2        2        5        6        7 </v>
   <v type="int" >        2        1        3        4        8 </v>
   <v type="int" >        2        1        2        4        8 </v>
   <v type="int" >        2        1        2        6        8 </v>
   <v type="int" >        2        1        3        7        8 </v>
   <v type="int" >        2        1        5        7        8 </v>
   <v type="int" >        2        1        5        6        8 </v>
  </varray>
  <i name="volumeweight">      0.02083333 </i>
 </kpoints>
 <parameters>
  <separator name="general" >
   <i type="string" name="SYSTEM">La2O2S</i>
   <i type="logical" name="LCOMPAT"> F  </i>
  </separator>
  <separator name="electronic" >
   <i type="string" name="PREC">normal</i>
   <i name="ENMAX">    600.00000000</i>
   <i name="ENAUG">    900.00000000</i>
   <i name="EDIFF">      0.00000100</i>
   <i type="int" name="IALGO">    38</i>
   <i type="int" name="IWAVPR">    11</i>
   <i type="int" name="NBANDS">   280</i>
   <i name="NELECT">    460.00000000</i>
   <i type="int" name="TURBO">     0</i>
   <i type="int" name="IRESTART">     0</i>
   <i type="int" name="NREBOOT">     0</i>
   <i type="int" name="NMIN">     0</i>
   <i name="EREF">      0.00000000</i>
   <separator name="electronic smearing" >
    <i type="int" name="ISMEAR">    -5</i>
    <i name="SIGMA">      0.20000000</i>
    <i name="KSPACING">      0.50000000</i>
    <i type="logical" name="KGAMMA"> T  </i>
   </separator>
   <separator name="electronic projectors" >
    <i type="logical" name="LREAL"> F  </i>
    <v name="ROPT">      0.00000000      0.00000000      0.00000000      0.00000000      0.00000000</v>
    <i type="int" name="LMAXPAW">  -100</i>
    <i type="int" name="LMAXMIX">     2</i>
    <i type="logical" name="NLSPLINE"> F  </i>
   </separator>
   <separator name="electronic startup" >
    <i type="int" name="ISTART">     0</i>
    <i type="int" name="ICHARG">     2</i>
    <i type="int" name="INIWAV">     1</i>
   </separator>
   <separator name="electronic spin" >
    <i type="int" name="ISPIN">     1</i>
    <i type="logical" name="LNONCOLLINEAR"> F  </i>
    <v name="MAGMOM">      1.00000000      1.00000000      1.00000000      1.00000000      1.00000000      1.00000000      1.00000000      1.00000000      1.00000000      1.00000000      1.00000000      1.00000000      1.00000000      1.00000000      1.00000000      1.00000000      1.00000000      1.00000000      1.00000000      1.00000000
      1.00000000      1.00000000      1.00000000      1.00000000      1.00000000      1.00000000      1.00000000      1.00000000      1.00000000      1.00000000      1.00000000      1.00000000      1.00000000      1.00000000      1.00000000      1.00000000      1.00000000      1.00000000      1.00000000      1.00000000
      1.00000000      1.00000000      1.00000000      1.00000000      1.00000000      1.00000000      1.00000000      1.00000000      1.00000000      1.00000000      1.00000000      1.00000000      1.00000000      1.00000000      1.00000000      1.00000000      1.00000000      1.00000000      1.00000000</v>
    <i name="NUPDOWN">     -1.00000000</i>
    <i type="logical" name="LSORBIT"> F  </i>
    <v name="SAXIS">      0.00000000      0.00000000      1.00000000</v>
    <i type="logical" name="LSPIRAL"> F  </i>
    <v name="QSPIRAL">      0.00000000      0.00000000      0.00000000</v>
    <i type="logical" name="LZEROZ"> F  </i>
   </separator>
   <separator name="electronic exchange-correlation" >
    <i type="logical" name="LASPH"> F  </i>
    <i type="logical" name="LMETAGGA"> F  </i>
   </separator>
   <separator name="electronic convergence" >
    <i type="int" name="NELM">    60</i>
    <i type="int" name="NELMDL">    -5</i>
    <i type="int" name="NELMIN">     4</i>
    <i name="ENINI">    600.00000000</i>
    <separator name="electronic convergence detail" >
     <i type="logical" name="LDIAG"> T  </i>
     <i type="logical" name="LSUBROT"> F  </i>
     <i name="WEIMIN">      0.00100000</i>
     <i name="EBREAK">      0.00000000</i>
     <i name="DEPER">      0.30000000</i>
     <i type="int" name="NRMM">     4</i>
     <i name="TIME">      0.40000000</i>
    </separator>
   </separator>
   <separator name="electronic mixer" >
    <i name="AMIX">      0.40000000</i>
    <i name="BMIX">      1.00000000</i>
    <i name="AMIN">      0.10000000</i>
    <i name="AMIX_MAG">      1.60000000</i>
    <i name="BMIX_MAG">      1.00000000</i>
    <separator name="electronic mixer details" >
     <i type="int" name="IMIX">     4</i>
     <i type="logical" name="MIXFIRST"> F  </i>
     <i type="int" name="MAXMIX">   -45</i>
     <i name="WC">    100.00000000</i>
     <i type="int" name="INIMIX">     1</i>
     <i type="int" name="MIXPRE">     1</i>
     <i type="int" name="MREMOVE">     5</i>
    </separator>
   </separator>
   <separator name="electronic dipolcorrection" >
    <i type="logical" name="LDIPOL"> F  </i>
    <i type="logical" name="LMONO"> F  </i>
    <i type="int" name="IDIPOL">     0</i>
    <i name="EPSILON">      1.00000000</i>
    <v name="DIPOL">   -100.00000000   -100.00000000   -100.00000000</v>
    <i name="EFIELD">      0.00000000</i>
   </separator>
  </separator>
  <separator name="grids" >
   <i type="int" name="NGX">    70</i>
   <i type="int" name="NGY">    60</i>
   <i type="int" name="NGZ">    70</i>
   <i type="int" name="NGXF">   140</i>
   <i type="int" name="NGYF">   120</i>
   <i type="int" name="NGZF">   140</i>
   <i type="logical" name="ADDGRID"> F  </i>
  </separator>
  <separator name="ionic" >
   <i type="int" name="NSW">     1</i>
   <i type="int" name="IBRION">     2</i>
   <i type="int" name="MDALGO">     0</i>
   <i type="int" name="ISIF">     2</i>
   <i name="PSTRESS">      0.00000000</i>
   <i name="EDIFFG">     -0.01000000</i>
   <i type="int" name="NFREE">    10</i>
   <i name="POTIM">      0.50000000</i>
   <i name="SMASS">     -3.00000000</i>
   <i name="SCALEE">      1.00000000</i>
  </separator>
  <separator name="ionic md" >
   <i name="TEBEG">      0.00010000</i>
   <i name="TEEND">      0.00010000</i>
   <i type="int" name="NBLOCK">     1</i>
   <i type="int" name="KBLOCK">     1</i>
   <i type="int" name="NPACO">   256</i>
   <i name="APACO">     16.00000000</i>
  </separator>
  <separator name="symmetry" >
   <i type="int" name="ISYM">     2</i>
   <i name="SYMPREC">      0.00001000</i>
  </separator>
  <separator name="dos" >
   <i type="int" name="LORBIT">     0</i>
   <v name="RWIGS">     -1.00000000     -1.00000000     -1.00000000     -1.00000000     -1.00000000</v>
   <i type="int" name="NEDOS">   301</i>
   <i name="EMIN">     10.00000000</i>
   <i name="EMAX">    -10.00000000</i>
   <i name="EFERMI">      0.00000000</i>
  </separator>
  <separator name="writing" >
   <i type="int" name="NWRITE">     2</i>
   <i type="logical" name="LWAVE"> F  </i>
   <i type="logical" name="LDOWNSAMPLE"> F  </i>
   <i type="logical" name="LCHARG"> F  </i>
   <i type="logical" name="LPARD"> F  </i>
   <i type="logical" name="LVTOT"> F  </i>
   <i type="logical" name="LVHAR"> F  </i>
   <i type="logical" name="LELF"> F  </i>
   <i type="logical" name="LOPTICS"> F  </i>
   <v name="STM">      0.00000000      0.00000000      0.00000000      0.00000000      0.00000000      0.00000000      0.00000000</v>
  </separator>
  <separator name="performance" >
   <i type="int" name="NPAR">    28</i>
   <i type="int" name="NSIM">     4</i>
   <i type="int" name="NBLK">    -1</i>
   <i type="logical" name="LPLANE"> T  </i>
   <i type="logical" name="LSCALAPACK"> T  </i>
   <i type="logical" name="LSCAAWARE"> F  </i>
   <i type="logical" name="LSCALU"> F  </i>
   <i type="logical" name="LASYNC"> F  </i>
   <i type="logical" name="LORBITALREAL"> F  </i>
  </separator>
  <separator name="miscellaneous" >
   <i type="int" name="IDIOT">     3</i>
   <i type="int" name="ISPECIAL">     0</i>
   <i type="logical" name="LMUSIC"> F  </i>
   <v name="POMASS">      7.01000000     24.30500000    208.98000000     32.06600000     16.00000000</v>
   <v name="DARWINR">      0.00000000      0.00000000      0.00000000      0.00000000      0.00000000</v>
   <v name="DARWINV">      1.00000000      1.00000000      1.00000000      1.00000000      1.00000000</v>
   <i type="logical" name="LCORR"> T  </i>
  </separator>
  <i type="logical" name="GGA_COMPAT"> T  </i>
  <i type="logical" name="LBERRY"> F  </i>
  <i type="int" name="ICORELEVEL">     0</i>
  <i type="logical" name="LDAU"> F  </i>
  <i type="int" name="I_CONSTRAINED_M">     0</i>
  <separator name="electronic exchange-correlation" >
   <i type="string" name="GGA">--</i>
   <i type="int" name="VOSKOWN">     0</i>
   <i type="logical" name="LHFCALC"> F  </i>
   <i type="string" name="PRECFOCK"></i>
   <i type="logical" name="LSYMGRAD"> F  </i>
   <i type="logical" name="LHFONE"> F  </i>
   <i type="logical" name="LRHFCALC"> F  </i>
   <i type="logical" name="LTHOMAS"> F  </i>
   <i type="logical" name="LMODELHF"> F  </i>
   <i name="ENCUT4O">     -1.00000000</i>
   <i type="int" name="EXXOEP">     0</i>
   <i type="int" name="FOURORBIT">     0</i>
   <i name="AEXX">      0.00000000</i>
   <i name="HFALPHA">      0.00000000</i>
   <i name="MCALPHA">      0.00000000</i>
   <i name="ALDAX">      1.00000000</i>
   <i name="AGGAX">      1.00000000</i>
   <i name="ALDAC">      1.00000000</i>
   <i name="AGGAC">      1.00000000</i>
   <i type="int" name="NKREDX">     1</i>
   <i type="int" name="NKREDY">     1</i>
   <i type="int" name="NKREDZ">     1</i>
   <i type="logical" name="SHIFTRED"> F  </i>
   <i type="logical" name="ODDONLY"> F  </i>
   <i type="logical" name="EVENONLY"> F  </i>
   <i type="int" name="LMAXFOCK">     0</i>
   <i type="int" name="NMAXFOCKAE">     0</i>
   <i type="logical" name="LFOCKAEDFT"> F  </i>
   <i name="HFSCREEN">      0.00000000</i>
   <i name="HFSCREENC">      0.00000000</i>
   <i type="int" name="NBANDSGWLOW">     0</i>
  </separator>
  <separator name="vdW DFT" >
   <i type="logical" name="LUSE_VDW"> F  </i>
   <i name="Zab_VDW">     -0.84910000</i>
   <i name="PARAM1">      0.12340000</i>
   <i name="PARAM2">      1.00000000</i>
   <i name="PARAM3">      0.00000000</i>
  </separator>
  <separator name="model GW" >
   <i type="int" name="MODEL_GW">     0</i>
   <i name="MODEL_EPS0">     12.17134107</i>
   <i name="MODEL_ALPHA">      1.00000000</i>
  </separator>
  <separator name="linear response parameters" >
   <i type="logical" name="LEPSILON"> F  </i>
   <i type="logical" name="LRPA"> F  </i>
   <i type="logical" name="LNABLA"> F  </i>
   <i type="logical" name="LVEL"> F  </i>
   <i type="int" name="KINTER">     0</i>
   <i name="CSHIFT">      0.10000000</i>
   <i name="OMEGAMAX">     -1.00000000</i>
   <i name="DEG_THRESHOLD">      0.00200000</i>
   <i name="RTIME">     -0.10000000</i>
   <i name="WPLASMAI">      0.00000000</i>
   <v name="DFIELD">      0.00000000      0.00000000      0.00000000</v>
   <v name="WPLASMA">      0.00000000      0.00000000      0.00000000      0.00000000      0.00000000      0.00000000      0.00000000      0.00000000      0.00000000</v>
  </separator>
  <separator name="orbital magnetization" >
   <i type="logical" name="NUCIND"> F  </i>
   <v name="MAGPOS">      0.00000000      0.00000000      0.00000000</v>
   <i type="logical" name="LNICSALL"> T  </i>
   <i type="logical" name="ORBITALMAG"> F  </i>
   <i type="logical" name="LMAGBLOCH"> F  </i>
   <i type="logical" name="LCHIMAG"> F  </i>
   <i type="logical" name="LGAUGE"> T  </i>
   <i type="int" name="MAGATOM">     0</i>
   <v name="MAGDIPOL">      0.00000000      0.00000000      0.00000000</v>
   <v name="AVECCONST">      0.00000000      0.00000000      0.00000000</v>
  </separator>
  <separator name="response functions" >
   <i type="logical" name="LADDER"> F  </i>
   <i type="logical" name="LRPAFORCE"> F  </i>
   <i type="logical" name="LFXC"> F  </i>
   <i type="logical" name="LHARTREE"> T  </i>
   <i type="int" name="IBSE">     0</i>
   <v type="int" name="KPOINT">    -1     0     0     0</v>
   <i type="logical" name="LTCTE"> F  </i>
   <i type="logical" name="LTETE"> F  </i>
   <i type="logical" name="LTRIPLET"> F  </i>
   <i type="logical" name="LFXCEPS"> F  </i>
   <i type="logical" name="LFXHEG"> F  </i>
   <i type="int" name="NATURALO">     2</i>
   <i type="logical" name="L2ORDER"> F  </i>
   <i type="logical" name="LMP2LT"> F  </i>
   <i type="logical" name="LUSEW"> F  </i>
   <i name="ENCUTGW">     -2.00000000</i>
   <i name="ENCUTGWSOFT">     -2.00000000</i>
   <i name="ENCUTLF">     -1.00000000</i>
   <i type="int" name="LMAXMP2">    -1</i>
   <i name="SCISSOR">      0.00000000</i>
   <i type="int" name="NOMEGA">     0</i>
   <i type="int" name="NOMEGAR">     0</i>
   <i type="int" name="NBANDSGW">    -1</i>
   <i type="int" name="NBANDSO">    -1</i>
   <i type="int" name="NBANDSV">    -1</i>
   <i type="int" name="NELM">     1</i>
   <i type="int" name="NELMHF">     1</i>
   <i type="int" name="DIM">     3</i>
   <i type="int" name="ANTIRES">     0</i>
   <i name="OMEGAMAX">    -30.00000000</i>
   <i name="OMEGAMIN">    -30.00000000</i>
   <i name="OMEGATL">   -200.00000000</i>
   <i type="int" name="OMEGAGRID">   140</i>
   <i name="CSHIFT">     -0.10000000</i>
   <i type="logical" name="SELFENERGY"> F  </i>
   <i type="logical" name="LSPECTRAL"> F  </i>
   <i type="logical" name="LSPECTRALGW"> F  </i>
   <i type="logical" name="LSINGLES"> F  </i>
   <i type="logical" name="LFERMIGW"> F  </i>
   <i type="logical" name="ODDONLYGW"> F  </i>
   <i type="logical" name="EVENONLYGW"> F  </i>
   <i type="int" name="NKREDLFX">     1</i>
   <i type="int" name="NKREDLFY">     1</i>
   <i type="int" name="NKREDLFZ">     1</i>
   <i type="int" name="MAXMEM">  2800</i>
   <i type="int" name="TELESCOPE">     0</i>
   <i type="int" name="TAUPAR">     1</i>
   <i type="int" name="OMEGAPAR">    -1</i>
   <i name="LAMBDA">      1.00000000</i>
  </separator>
  <separator name="External order field" >
   <i name="OFIELD_KAPPA">      0.00000000</i>
   <v name="OFIELD_K">      0.00000000      0.00000000      0.00000000</v>
   <i name="OFIELD_Q6_NEAR">      0.00000000</i>
   <i name="OFIELD_Q6_FAR">      0.00000000</i>
   <i name="OFIELD_A">      0.00000000</i>
  </separator>
 </parameters>
 <atominfo>
  <atoms>      59 </atoms>
  <types>       5 </types>
  <array name="atoms" >
   <dimension dim="1">ion</dimension>
   <field type="string">element</field>
   <field type="int">atomtype</field>
   <set>
    <rc><c>Li</c><c>   1</c></rc>
    <rc><c>Li</c><c>   1</c></rc>
    <rc><c>Li</c><c>   1</c></rc>
    <rc><c>Li</c><c>   1</c></rc>
    <rc><c>Li</c><c>   1</c></rc>
    <rc><c>Li</c><c>   1</c></rc>
    <rc><c>Mg</c><c>   2</c></rc>
    <rc><c>Mg</c><c>   2</c></rc>
    <rc><c>Mg</c><c>   2</c></rc>
    <rc><c>Mg</c><c>   2</c></rc>
    <rc><c>Mg</c><c>   2</c></rc>
    <rc><c>Bi</c><c>   3</c></rc>
    <rc><c>Bi</c><c>   3</c></rc>
    <rc><c>Bi</c><c>   3</c></rc>
    <rc><c>Bi</c><c>   3</c></rc>
    <rc><c>Bi</c><c>   3</c></rc>
    <rc><c>Bi</c><c>   3</c></rc>
    <rc><c>Bi</c><c>   3</c></rc>
    <rc><c>Bi</c><c>   3</c></rc>
    <rc><c>Bi</c><c>   3</c></rc>
    <rc><c>Bi</c><c>   3</c></rc>
    <rc><c>Bi</c><c>   3</c></rc>
    <rc><c>Bi</c><c>   3</c></rc>
    <rc><c>Bi</c><c>   3</c></rc>
    <rc><c>Bi</c><c>   3</c></rc>
    <rc><c>Bi</c><c>   3</c></rc>
    <rc><c>Bi</c><c>   3</c></rc>
    <rc><c>S </c><c>   4</c></rc>
    <rc><c>S </c><c>   4</c></rc>
    <rc><c>S </c><c>   4</c></rc>
    <rc><c>S </c><c>   4</c></rc>
    <rc><c>S </c><c>   4</c></rc>
    <rc><c>S </c><c>   4</c></rc>
    <rc><c>S </c><c>   4</c></rc>
    <rc><c>S </c><c>   4</c></rc>
    <rc><c>S </c><c>   4</c></rc>
    <rc><c>S </c><c>   4</c></rc>
    <rc><c>S </c><c>   4</c></rc>
    <rc><c>S </c><c>   4</c></rc>
    <rc><c>S </c><c>   4</c></rc>
    <rc><c>S </c><c>   4</c></rc>
    <rc><c>S </c><c>   4</c></rc>
    <rc><c>S </c><c>   4</c></rc>
    <rc><c>O </c><c>   5</c></rc>
    <rc><c>O </c><c>   5</c></rc>
    <rc><c>O </c><c>   5</c></rc>
    <rc><c>O </c><c>   5</c></rc>
    <rc><c>O </c><c>   5</c></rc>
    <rc><c>O </c><c>   5</c></rc>
    <rc><c>O </c><c>   5</c></rc>
    <rc><c>O </c><c>   5</c></rc>
    <rc><c>O </c><c>   5</c></rc>
    <rc><c>O </c><c>   5</c></rc>
    <rc><c>O </c><c>   5</c></rc>
    <rc><c>O </c><c>   5</c></rc>
    <rc><c>O </c><c>   5</c></rc>
    <rc><c>O </c><c>   5</c></rc>
    <rc><c>O </c><c>   5</c></rc>
    <rc><c>O </c><c>   5</c></rc>
   </set>
  </array>
  <array name="atomtypes" >
   <dimension dim="1">type</dimension>
   <field type="int">atomspertype</field>
   <field type="string">element</field>
   <field>mass</field>
   <field>valence</field>
   <field type="string">pseudopotential</field>
   <set>
    <rc><c>   6</c><c>Li</c><c>      7.01000000</c><c>      3.00000000</c><c>  PAW_PBE Li_sv 10Sep2004               </c></rc>
    <rc><c>   5</c><c>Mg</c><c>     24.30500000</c><c>      2.00000000</c><c>  PAW_PBE Mg 13Apr2007                  </c></rc>
    <rc><c>  16</c><c>Bi</c><c>    208.98000000</c><c>     15.00000000</c><c>  PAW_PBE Bi_d 06Sep2000                </c></rc>
    <rc><c>  16</c><c>S </c><c>     32.06600000</c><c>      6.00000000</c><c>  PAW_PBE S 06Sep2000                   </c></rc>
    <rc><c>  16</c><c>O </c><c>     16.00000000</c><c>      6.00000000</c><c>  PAW_PBE O 08Apr2002                   </c></rc>
   </set>
  </array>
 </atominfo>
 <structure name="initialpos" >
  <crystal>
   <varray name="basis" >
    <v>      11.17850000       0.00000000       0.00000000 </v>
    <v>       0.00000000       9.57460000       0.00000000 </v>
    <v>       0.00000000       0.00000000      11.18240000 </v>
   </varray>
   <i name="volume">   1196.84853820 </i>
   <varray name="rec_basis" >
    <v>       0.08945744       0.00000000       0.00000000 </v>
    <v>       0.00000000       0.10444301       0.00000000 </v>
    <v>       0.00000000       0.00000000       0.08942624 </v>
   </varray>
  </crystal>
  <varray name="positions" >
   <v>       0.37539000       0.00017000       0.43687000 </v>
   <v>       0.62539000       0.99984000       0.43687000 </v>
   <v>       0.37539000       0.00017000       0.93687000 </v>
   <v>       0.37461000       0.00017000       0.68687000 </v>
   <v>       0.62539000       0.99984000       0.93687000 </v>
   <v>       0.62461000       0.99984000       0.68687000 </v>
   <v>       0.12461000       0.99984000       0.18687000 </v>
   <v>       0.87539000       0.00017000       0.43687000 </v>
   <v>       0.62461000       0.99984000       0.18687000 </v>
   <v>       0.12461000       0.99984000       0.68687000 </v>
   <v>       0.87539000       0.00017000       0.93687000 </v>
   <v>       0.00013000       0.29519000       0.06281000 </v>
   <v>       0.25013000       0.70481000       0.06281000 </v>
   <v>       0.24987000       0.29519000       0.31282000 </v>
   <v>       0.49987000       0.70481000       0.31282000 </v>
   <v>       0.50013000       0.29519000       0.06281000 </v>
   <v>       0.75013000       0.70481000       0.06281000 </v>
   <v>       0.74987000       0.29519000       0.31282000 </v>
   <v>       0.99987000       0.70481000       0.31282000 </v>
   <v>       0.00013000       0.29519000       0.56281000 </v>
   <v>       0.25013000       0.70481000       0.56281000 </v>
   <v>       0.24987000       0.29519000       0.81282000 </v>
   <v>       0.49987000       0.70481000       0.81282000 </v>
   <v>       0.50013000       0.29519000       0.56281000 </v>
   <v>       0.75013000       0.70481000       0.56281000 </v>
   <v>       0.74987000       0.29519000       0.81282000 </v>
   <v>       0.99987000       0.70481000       0.81282000 </v>
   <v>       0.25005000       0.32677000       0.06286000 </v>
   <v>       0.00005000       0.67323000       0.06286000 </v>
   <v>       0.49995000       0.32677000       0.31286000 </v>
   <v>       0.24995000       0.67323000       0.31286000 </v>
   <v>       0.75005000       0.32677000       0.06286000 </v>
   <v>       0.50005000       0.67323000       0.06286000 </v>
   <v>       0.99995000       0.32677000       0.31286000 </v>
   <v>       0.74995000       0.67323000       0.31286000 </v>
   <v>       0.25005000       0.32677000       0.56286000 </v>
   <v>       0.00005000       0.67323000       0.56286000 </v>
   <v>       0.49995000       0.32677000       0.81286000 </v>
   <v>       0.24995000       0.67323000       0.81286000 </v>
   <v>       0.75005000       0.32677000       0.56286000 </v>
   <v>       0.50005000       0.67323000       0.56286000 </v>
   <v>       0.99995000       0.32677000       0.81286000 </v>
   <v>       0.74995000       0.67323000       0.81286000 </v>
   <v>       0.49987000       0.07798000       0.06246000 </v>
   <v>       0.24987000       0.92202000       0.06246000 </v>
   <v>       0.25013000       0.07798000       0.31246000 </v>
   <v>       0.00013000       0.92202000       0.31246000 </v>
   <v>       0.99987000       0.07798000       0.06246000 </v>
   <v>       0.74987000       0.92202000       0.06246000 </v>
   <v>       0.75013000       0.07798000       0.31246000 </v>
   <v>       0.50013000       0.92202000       0.31246000 </v>
   <v>       0.49987000       0.07798000       0.56246000 </v>
   <v>       0.24987000       0.92202000       0.56246000 </v>
   <v>       0.25013000       0.07798000       0.81246000 </v>
   <v>       0.00013000       0.92202000       0.81246000 </v>
   <v>       0.99987000       0.07798000       0.56246000 </v>
   <v>       0.74987000       0.92202000       0.56246000 </v>
   <v>       0.75013000       0.07798000       0.81246000 </v>
   <v>       0.50013000       0.92202000       0.81246000 </v>
  </varray>
 </structure>
 <calculation>
  <scstep>
   <time name="dav">   60.31   60.67</time>
   <time name="total">   60.40   60.76</time>
   <energy>
    <i name="alphaZ">   1060.66890660 </i>
    <i name="ewald"> -30393.95370364 </i>
    <i name="hartreedc"> -12724.77039334 </i>
    <i name="XCdc">   1247.14256150 </i>
    <i name="pawpsdc">  36635.26894311 </i>
    <i name="pawaedc"> -35972.74895369 </i>
    <i name="eentropy">      0.00000000 </i>
    <i name="bandstr">   1866.92656516 </i>
    <i name="atom">  44026.03258983 </i>
    <i name="e_fr_energy">   5744.56651554 </i>
    <i name="e_wo_entrp">   5744.56651554 </i>
    <i name="e_0_energy">   5744.56651554 </i>
   </energy>
  </scstep>
  <scstep>
   <time name="dav">   62.05   62.12</time>
   <time name="total">   62.06   62.13</time>
   <energy>
    <i name="e_fr_energy">    750.12875308 </i>
    <i name="e_wo_entrp">    750.12875308 </i>
    <i name="e_0_energy">    750.12875308 </i>
   </energy>
  </scstep>
  <scstep>
   <time name="dav">   69.86   70.08</time>
   <time name="total">   69.87   70.08</time>
   <energy>
    <i name="e_fr_energy">   -246.67919328 </i>
    <i name="e_wo_entrp">   -246.67919328 </i>
    <i name="e_0_energy">   -246.67919328 </i>
   </energy>
  </scstep>
  <scstep>
   <time name="dav">   72.95   73.13</time>
   <time name="total">   72.96   73.13</time>
   <energy>
    <i name="e_fr_energy">   -337.00962585 </i>
    <i name="e_wo_entrp">   -337.00962585 </i>
    <i name="e_0_energy">   -337.00962585 </i>
   </energy>
  </scstep>
  <scstep>
   <time name="dav">   93.92   94.11</time>
   <time name="total">   94.64   94.83</time>
   <energy>
    <i name="e_fr_energy">   -344.45974310 </i>
    <i name="e_wo_entrp">   -344.45974310 </i>
    <i name="e_0_energy">   -344.45974310 </i>
   </energy>
  </scstep>
  <scstep>
   <time name="dav">   86.77   86.98</time>
   <time name="total">   87.55   87.76</time>
   <energy>
    <i name="e_fr_energy">   -288.83057140 </i>
    <i name="e_wo_entrp">   -288.83057140 </i>
    <i name="e_0_energy">   -288.83057140 </i>
   </energy>
  </scstep>
  <scstep>
   <time name="dav">   66.13   66.32</time>
   <time name="total">   66.91   67.11</time>
   <energy>
    <i name="e_fr_energy">   -291.32720391 </i>
    <i name="e_wo_entrp">   -291.32720391 </i>
    <i name="e_0_energy">   -291.32720391 </i>
   </energy>
  </scstep>
  <scstep>
   <time name="dav">   76.97   77.23</time>
   <time name="total">   77.74   78.02</time>
   <energy>
    <i name="e_fr_energy">   -290.33749462 </i>
    <i name="e_wo_entrp">   -290.33749462 </i>
    <i name="e_0_energy">   -290.33749462 </i>
   </energy>
  </scstep>
  <scstep>
   <time name="dav">   75.88   76.09</time>
   <time name="total">   76.66   76.88</time>
   <energy>
    <i name="e_fr_energy">   -289.81548556 </i>
    <i name="e_wo_entrp">   -289.81548556 </i>
    <i name="e_0_energy">   -289.81548556 </i>
   </energy>
  </scstep>
  <scstep>
   <time name="dav">   74.17   74.90</time>
   <time name="total">   74.95   75.68</time>
   <energy>
    <i name="e_fr_energy">   -289.84123995 </i>
    <i name="e_wo_entrp">   -289.84123995 </i>
    <i name="e_0_energy">   -289.84123995 </i>
   </energy>
  </scstep>
  <scstep>
   <time name="dav">   79.53   80.14</time>
   <time name="total">   80.31   80.92</time>
   <energy>
    <i name="e_fr_energy">   -289.84746835 </i>
    <i name="e_wo_entrp">   -289.84746835 </i>
    <i name="e_0_energy">   -289.84746835 </i>
   </energy>
  </scstep>
  <scstep>
   <time name="dav">   80.52   81.42</time>
   <time name="total">   81.31   82.21</time>
   <energy>
    <i name="e_fr_energy">   -289.85004059 </i>
    <i name="e_wo_entrp">   -289.85004059 </i>
    <i name="e_0_energy">   -289.85004059 </i>
   </energy>
  </scstep>
  <scstep>
   <time name="dav">   73.78   74.50</time>
   <time name="total">   74.57   75.29</time>
   <energy>
    <i name="e_fr_energy">   -289.85134604 </i>
    <i name="e_wo_entrp">   -289.85134604 </i>
    <i name="e_0_energy">   -289.85134604 </i>
   </energy>
  </scstep>
  <scstep>
   <time name="dav">   79.42   80.59</time>
   <time name="total">   80.21   81.38</time>
   <energy>
    <i name="e_fr_energy">   -289.85145791 </i>
    <i name="e_wo_entrp">   -289.85145791 </i>
    <i name="e_0_energy">   -289.85145791 </i>
   </energy>
  </scstep>
  <scstep>
   <time name="dav">   76.84   77.61</time>
   <time name="total">   77.62   78.40</time>
   <energy>
    <i name="e_fr_energy">   -289.85148425 </i>
    <i name="e_wo_entrp">   -289.85148425 </i>
    <i name="e_0_energy">   -289.85148425 </i>
   </energy>
  </scstep>
  <scstep>
   <time name="dav">   63.27   63.55</time>
   <time name="total">   64.05   64.34</time>
   <energy>
    <i name="e_fr_energy">   -289.85150146 </i>
    <i name="e_wo_entrp">   -289.85150146 </i>
    <i name="e_0_energy">   -289.85150146 </i>
   </energy>
  </scstep>
  <scstep>
   <time name="dav">   68.54   68.71</time>
   <time name="total">   69.34   69.51</time>
   <energy>
    <i name="e_fr_energy">   -289.85150362 </i>
    <i name="e_wo_entrp">   -289.85150362 </i>
    <i name="e_0_energy">   -289.85150362 </i>
   </energy>
  </scstep>
  <scstep>
   <time name="dav">   58.28   58.34</time>
   <time name="total">   58.35   58.41</time>
   <energy>
    <i name="alphaZ">   1060.66890660 </i>
    <i name="ewald"> -30393.95370364 </i>
    <i name="hartreedc"> -12967.91367597 </i>
    <i name="XCdc">   1272.05816650 </i>
    <i name="pawpsdc">  43670.18736477 </i>
    <i name="pawaedc"> -42981.00057422 </i>
    <i name="eentropy">      0.00000000 </i>
    <i name="bandstr">  -3975.93057785 </i>
    <i name="atom">  44026.03258983 </i>
    <i name="e_fr_energy">   -289.85150400 </i>
    <i name="e_wo_entrp">   -289.85150400 </i>
    <i name="e_0_energy">   -289.85150400 </i>
   </energy>
  </scstep>
  <structure>
   <crystal>
    <varray name="basis" >
     <v>      11.17850000       0.00000000       0.00000000 </v>
     <v>       0.00000000       9.57460000       0.00000000 </v>
     <v>       0.00000000       0.00000000      11.18240000 </v>
    </varray>
    <i name="volume">   1196.84853820 </i>
    <varray name="rec_basis" >
     <v>       0.08945744       0.00000000       0.00000000 </v>
     <v>       0.00000000       0.10444301       0.00000000 </v>
     <v>       0.00000000       0.00000000       0.08942624 </v>
    </varray>
   </crystal>
   <varray name="positions" >
    <v>       0.37539000       0.00017000       0.43687000 </v>
    <v>       0.62539000       0.99984000       0.43687000 </v>
    <v>       0.37539000       0.00017000       0.93687000 </v>
    <v>       0.37461000       0.00017000       0.68687000 </v>
    <v>       0.62539000       0.99984000       0.93687000 </v>
    <v>       0.62461000       0.99984000       0.68687000 </v>
    <v>       0.12461000       0.99984000       0.18687000 </v>
    <v>       0.87539000       0.00017000       0.43687000 </v>
    <v>       0.62461000       0.99984000       0.18687000 </v>
    <v>       0.12461000       0.99984000       0.68687000 </v>
    <v>       0.87539000       0.00017000       0.93687000 </v>
    <v>       0.00013000       0.29519000       0.06281000 </v>
    <v>       0.25013000       0.70481000       0.06281000 </v>
    <v>       0.24987000       0.29519000       0.31282000 </v>
    <v>       0.49987000       0.70481000       0.31282000 </v>
    <v>       0.50013000       0.29519000       0.06281000 </v>
    <v>       0.75013000       0.70481000       0.06281000 </v>
    <v>       0.74987000       0.29519000       0.31282000 </v>
    <v>       0.99987000       0.70481000       0.31282000 </v>
    <v>       0.00013000       0.29519000       0.56281000 </v>
    <v>       0.25013000       0.70481000       0.56281000 </v>
    <v>       0.24987000       0.29519000       0.81282000 </v>
    <v>       0.49987000       0.70481000       0.81282000 </v>
    <v>       0.50013000       0.29519000       0.56281000 </v>
    <v>       0.75013000       0.70481000       0.56281000 </v>
    <v>       0.74987000       0.29519000       0.81282000 </v>
    <v>       0.99987000       0.70481000       0.81282000 </v>
    <v>       0.25005000       0.32677000       0.06286000 </v>
    <v>       0.00005000       0.67323000       0.06286000 </v>
    <v>       0.49995000       0.32677000       0.31286000 </v>
    <v>       0.24995000       0.67323000       0.31286000 </v>
    <v>       0.75005000       0.32677000       0.06286000 </v>
    <v>       0.50005000       0.67323000       0.06286000 </v>
    <v>       0.99995000       0.32677000       0.31286000 </v>
    <v>       0.74995000       0.67323000       0.31286000 </v>
    <v>       0.25005000       0.32677000       0.56286000 </v>
    <v>       0.00005000       0.67323000       0.56286000 </v>
    <v>       0.49995000       0.32677000       0.81286000 </v>
    <v>       0.24995000       0.67323000       0.81286000 </v>
    <v>       0.75005000       0.32677000       0.56286000 </v>
    <v>       0.50005000       0.67323000       0.56286000 </v>
    <v>       0.99995000       0.32677000       0.81286000 </v>
    <v>       0.74995000       0.67323000       0.81286000 </v>
    <v>       0.49987000       0.07798000       0.06246000 </v>
    <v>       0.24987000       0.92202000       0.06246000 </v>
    <v>       0.25013000       0.07798000       0.31246000 </v>
    <v>       0.00013000       0.92202000       0.31246000 </v>
    <v>       0.99987000       0.07798000       0.06246000 </v>
    <v>       0.74987000       0.92202000       0.06246000 </v>
    <v>       0.75013000       0.07798000       0.31246000 </v>
    <v>       0.50013000       0.92202000       0.31246000 </v>
    <v>       0.49987000       0.07798000       0.56246000 </v>
    <v>       0.24987000       0.92202000       0.56246000 </v>
    <v>       0.25013000       0.07798000       0.81246000 </v>
    <v>       0.00013000       0.92202000       0.81246000 </v>
    <v>       0.99987000       0.07798000       0.56246000 </v>
    <v>       0.74987000       0.92202000       0.56246000 </v>
    <v>       0.75013000       0.07798000       0.81246000 </v>
    <v>       0.50013000       0.92202000       0.81246000 </v>
   </varray>
  </structure>
  <varray name="forces" >
   <v>      -0.46005598       0.06613030      -0.41062523 </v>
   <v>      -0.35188658      -0.06059121       0.32351027 </v>
   <v>      -0.45989638      -0.06640754       0.41908011 </v>
   <v>       0.11421799       0.00063667       0.00713261 </v>
   <v>      -0.35281874       0.06032015      -0.30860278 </v>
   <v>       0.31163878       0.00010139       0.00422508 </v>
   <v>       0.43858853       0.00613378       0.02955199 </v>
   <v>       0.86328486      -0.12488519       0.21394269 </v>
   <v>      -0.40966340       0.00532903       0.02876053 </v>
   <v>      -0.53462386       0.00613355       0.03013992 </v>
   <v>       0.86456908       0.11390732      -0.15509323 </v>
   <v>       0.24403415      -0.05914537      -0.00852591 </v>
   <v>       0.07826642       1.03914439      -0.03088152 </v>
   <v>       0.08733973      -1.04862284       0.01983692 </v>
   <v>      -0.42963056      -0.03177536      -0.03705351 </v>
   <v>      -0.44650431       0.02809419       0.02847045 </v>
   <v>       0.09759177      -1.00082129       0.05850801 </v>
   <v>       0.10010987       1.00831062      -0.06582697 </v>
   <v>       0.26413859       0.06010670      -0.00128751 </v>
   <v>       0.14121058      -0.07273598      -0.01281126 </v>
   <v>      -0.01326061      -0.00721730      -0.23999527 </v>
   <v>      -0.00503948      -0.01165882       0.23179723 </v>
   <v>      -0.13770957      -0.03544582      -0.02531062 </v>
   <v>      -0.14806708       0.03550394       0.01629619 </v>
   <v>      -0.00252164      -0.02251412       0.24207769 </v>
   <v>       0.00484016       0.04259877      -0.25249837 </v>
   <v>       0.16380379       0.07303750       0.00233498 </v>
   <v>      -0.02629444       0.16535339      -0.06888462 </v>
   <v>      -0.26222205      -0.09593089      -0.01030002 </v>
   <v>       0.32080659       0.12291169      -0.03030916 </v>
   <v>      -0.02179218      -0.16522613       0.06691194 </v>
   <v>      -0.03409104       0.07509321       0.05624676 </v>
   <v>       0.31941180      -0.12154240       0.03112270 </v>
   <v>      -0.26576489       0.09556125       0.01063123 </v>
   <v>      -0.03214781      -0.07480720      -0.05798343 </v>
   <v>      -0.00705955       0.17450235       0.16317867 </v>
   <v>      -0.07750221      -0.09027790       0.00023135 </v>
   <v>       0.07992982       0.19488071      -0.00721268 </v>
   <v>      -0.00399864      -0.17568622      -0.16557808 </v>
   <v>       0.00535789       0.10074460      -0.13735398 </v>
   <v>       0.07508614      -0.19449034       0.00643132 </v>
   <v>      -0.08277623       0.09022427      -0.00007146 </v>
   <v>       0.00783134      -0.09884920       0.13804699 </v>
   <v>       1.32412406      -0.00941681      -0.11063520 </v>
   <v>      -0.46403288      -1.00512068       0.40947549 </v>
   <v>      -0.48348676       1.00050902      -0.41743431 </v>
   <v>      -0.22850325      -0.27557162       0.04773474 </v>
   <v>      -0.22538539       0.27505176      -0.05925992 </v>
   <v>      -0.61626912       0.68540410      -0.57315153 </v>
   <v>      -0.64715554      -0.68917617       0.54314698 </v>
   <v>       1.31824720       0.01418519       0.10183333 </v>
   <v>       0.09285452      -0.02338530       0.00006683 </v>
   <v>       0.13782835      -0.07899366       1.15091448 </v>
   <v>       0.11681126       0.07950946      -1.16694748 </v>
   <v>      -0.08634231      -0.27998243       0.01641651 </v>
   <v>      -0.08157092       0.27977329      -0.02755718 </v>
   <v>      -0.11861793       0.03522773      -1.20211101 </v>
   <v>      -0.13969761      -0.03702163       1.18803066 </v>
   <v>       0.08446570       0.02287912      -0.00278244 </v>
  </varray>
  <varray name="stress" >
   <v>      -8.95027969      -0.29266105      -0.01019893 </v>
   <v>      -0.29266085     -13.32173567      -0.14797841 </v>
   <v>      -0.01019927      -0.14797840     -11.26347769 </v>
  </varray>
  <energy>
   <i name="e_fr_energy">   -302.47989424 </i>
   <i name="e_wo_entrp">   -302.47989424 </i>
   <i name="e_0_energy">      0.00000000 </i>
  </energy>
  <time name="totalsc"> 1439.23 1446.63</time>
  <eigenvalues>
   <array>
    <dimension dim="1">band</dimension>
    <dimension dim="2">kpoint</dimension>
    <dimension dim="3">spin</dimension>
    <field>eigene</field>
    <field>occ</field>
    <set>
     <set comment="spin 1">
      <set comment="kpoint 1">
       <r>  -40.1359    1.0000 </r>
       <r>  -40.1357    1.0000 </r>
       <r>  -39.8519    1.0000 </r>
       <r>  -39.8372    1.0000 </r>
       <r>  -39.5695    1.0000 </r>
       <r>  -39.5690    1.0000 </r>
       <r>  -18.9512    1.0000 </r>
       <r>  -18.9501    1.0000 </r>
       <r>  -18.8817    1.0000 </r>
       <r>  -18.8814    1.0000 </r>
       <r>  -18.8745    1.0000 </r>
       <r>  -18.8743    1.0000 </r>
       <r>  -18.7823    1.0000 </r>
       <r>  -18.7811    1.0000 </r>
       <r>  -18.7593    1.0000 </r>
       <r>  -18.7585    1.0000 </r>
       <r>  -18.7536    1.0000 </r>
       <r>  -18.7509    1.0000 </r>
       <r>  -18.7442    1.0000 </r>
       <r>  -18.7416    1.0000 </r>
       <r>  -18.7376    1.0000 </r>
       <r>  -18.7342    1.0000 </r>
       <r>  -18.6854    1.0000 </r>
       <r>  -18.6841    1.0000 </r>
       <r>  -18.6792    1.0000 </r>
       <r>  -18.6783    1.0000 </r>
       <r>  -18.6779    1.0000 </r>
       <r>  -18.6766    1.0000 </r>
       <r>  -18.6699    1.0000 </r>
       <r>  -18.6688    1.0000 </r>
       <r>  -18.6686    1.0000 </r>
       <r>  -18.6678    1.0000 </r>
       <r>  -18.6666    1.0000 </r>
       <r>  -18.6659    1.0000 </r>
       <r>  -18.6620    1.0000 </r>
       <r>  -18.6613    1.0000 </r>
       <r>  -18.6598    1.0000 </r>
       <r>  -18.6595    1.0000 </r>
       <r>  -18.6592    1.0000 </r>
       <r>  -18.6588    1.0000 </r>
       <r>  -18.6552    1.0000 </r>
       <r>  -18.6545    1.0000 </r>
       <r>  -18.6447    1.0000 </r>
       <r>  -18.6435    1.0000 </r>
       <r>  -18.6433    1.0000 </r>
       <r>  -18.6427    1.0000 </r>
       <r>  -18.6044    1.0000 </r>
       <r>  -18.6008    1.0000 </r>
       <r>  -18.5987    1.0000 </r>
       <r>  -18.5952    1.0000 </r>
       <r>  -18.5911    1.0000 </r>
       <r>  -18.5876    1.0000 </r>
       <r>  -18.5813    1.0000 </r>
       <r>  -18.5809    1.0000 </r>
       <r>  -18.5774    1.0000 </r>
       <r>  -18.5768    1.0000 </r>
       <r>  -18.5322    1.0000 </r>
       <r>  -18.5303    1.0000 </r>
       <r>  -18.5163    1.0000 </r>
       <r>  -18.5160    1.0000 </r>
       <r>  -18.5152    1.0000 </r>
       <r>  -18.5150    1.0000 </r>
       <r>  -18.5146    1.0000 </r>
       <r>  -18.5139    1.0000 </r>
       <r>  -18.5134    1.0000 </r>
       <r>  -18.5129    1.0000 </r>
       <r>  -18.5127    1.0000 </r>
       <r>  -18.5118    1.0000 </r>
       <r>  -18.4864    1.0000 </r>
       <r>  -18.4857    1.0000 </r>
       <r>  -18.4847    1.0000 </r>
       <r>  -18.4837    1.0000 </r>
       <r>  -18.4491    1.0000 </r>
       <r>  -18.4448    1.0000 </r>
       <r>  -18.4295    1.0000 </r>
       <r>  -18.4251    1.0000 </r>
       <r>  -18.4213    1.0000 </r>
       <r>  -18.4186    1.0000 </r>
       <r>  -18.4087    1.0000 </r>
       <r>  -18.4061    1.0000 </r>
       <r>  -18.3308    1.0000 </r>
       <r>  -18.3275    1.0000 </r>
       <r>  -18.2222    1.0000 </r>
       <r>  -18.2190    1.0000 </r>
       <r>  -18.1946    1.0000 </r>
       <r>  -18.1913    1.0000 </r>
       <r>  -13.5863    1.0000 </r>
       <r>  -13.4885    1.0000 </r>
       <r>  -12.9365    1.0000 </r>
       <r>  -12.8345    1.0000 </r>
       <r>  -12.8308    1.0000 </r>
       <r>  -12.8040    1.0000 </r>
       <r>  -12.7465    1.0000 </r>
       <r>  -12.7413    1.0000 </r>
       <r>  -12.7149    1.0000 </r>
       <r>  -12.7098    1.0000 </r>
       <r>  -12.6633    1.0000 </r>
       <r>  -12.6406    1.0000 </r>
       <r>  -12.6348    1.0000 </r>
       <r>  -12.5950    1.0000 </r>
       <r>  -12.0232    1.0000 </r>
       <r>  -11.9430    1.0000 </r>
       <r>   -9.3590    1.0000 </r>
       <r>   -9.0633    1.0000 </r>
       <r>   -8.5621    1.0000 </r>
       <r>   -8.5328    1.0000 </r>
       <r>   -8.5164    1.0000 </r>
       <r>   -8.4736    1.0000 </r>
       <r>   -8.3390    1.0000 </r>
       <r>   -8.3131    1.0000 </r>
       <r>   -8.2898    1.0000 </r>
       <r>   -8.2492    1.0000 </r>
       <r>   -8.0613    1.0000 </r>
       <r>   -8.0606    1.0000 </r>
       <r>   -8.0223    1.0000 </r>
       <r>   -8.0212    1.0000 </r>
       <r>   -7.3876    1.0000 </r>
       <r>   -7.3869    1.0000 </r>
       <r>   -6.4020    1.0000 </r>
       <r>   -6.4013    1.0000 </r>
       <r>   -6.3663    1.0000 </r>
       <r>   -6.3655    1.0000 </r>
       <r>   -5.5543    1.0000 </r>
       <r>   -5.5193    1.0000 </r>
       <r>   -5.3920    1.0000 </r>
       <r>   -5.3677    1.0000 </r>
       <r>   -5.3663    1.0000 </r>
       <r>   -5.2788    1.0000 </r>
       <r>   -5.2400    1.0000 </r>
       <r>   -5.1998    1.0000 </r>
       <r>   -5.1499    1.0000 </r>
       <r>   -5.0880    1.0000 </r>
       <r>   -3.8379    1.0000 </r>
       <r>   -3.6877    1.0000 </r>
       <r>   -1.5324    1.0000 </r>
       <r>   -1.3141    1.0000 </r>
       <r>   -1.1629    1.0000 </r>
       <r>   -1.0014    1.0000 </r>
       <r>   -0.6116    1.0000 </r>
       <r>   -0.5578    1.0000 </r>
       <r>   -0.5246    1.0000 </r>
       <r>   -0.5000    1.0000 </r>
       <r>   -0.2259    1.0000 </r>
       <r>   -0.2093    1.0000 </r>
       <r>   -0.1849    1.0000 </r>
       <r>   -0.1711    1.0000 </r>
       <r>    0.0503    1.0000 </r>
       <r>    0.0718    1.0000 </r>
       <r>    0.2049    1.0000 </r>
       <r>    0.3673    1.0000 </r>
       <r>    0.4450    1.0000 </r>
       <r>    0.5629    1.0000 </r>
       <r>    0.6044    1.0000 </r>
       <r>    0.6051    1.0000 </r>
       <r>    0.6468    1.0000 </r>
       <r>    0.6879    1.0000 </r>
       <r>    0.7220    1.0000 </r>
       <r>    0.7319    1.0000 </r>
       <r>    0.7448    1.0000 </r>
       <r>    0.8323    1.0000 </r>
       <r>    0.8535    1.0000 </r>
       <r>    0.8767    1.0000 </r>
       <r>    0.9401    1.0000 </r>
       <r>    0.9599    1.0000 </r>
       <r>    0.9727    1.0000 </r>
       <r>    1.0168    1.0000 </r>
       <r>    1.0631    1.0000 </r>
       <r>    1.1318    1.0000 </r>
       <r>    1.2183    1.0000 </r>
       <r>    1.2693    1.0000 </r>
       <r>    1.3088    1.0000 </r>
       <r>    1.3477    1.0000 </r>
       <r>    1.4056    1.0000 </r>
       <r>    1.4399    1.0000 </r>
       <r>    1.4440    1.0000 </r>
       <r>    1.5066    1.0000 </r>
       <r>    1.5114    1.0000 </r>
       <r>    1.5749    1.0000 </r>
       <r>    1.6157    1.0000 </r>
       <r>    1.6660    1.0000 </r>
       <r>    1.7035    1.0000 </r>
       <r>    1.8100    1.0000 </r>
       <r>    1.8396    1.0000 </r>
       <r>    1.8516    1.0000 </r>
       <r>    1.8795    1.0000 </r>
       <r>    1.9731    1.0000 </r>
       <r>    2.0634    1.0000 </r>
       <r>    2.1182    1.0000 </r>
       <r>    2.1828    1.0000 </r>
       <r>    2.2563    1.0000 </r>
       <r>    2.2850    1.0000 </r>
       <r>    2.3386    1.0000 </r>
       <r>    2.4929    1.0000 </r>
       <r>    2.5142    1.0000 </r>
       <r>    2.5330    1.0000 </r>
       <r>    2.5418    1.0000 </r>
       <r>    2.5725    1.0000 </r>
       <r>    2.5739    1.0000 </r>
       <r>    2.6173    1.0000 </r>
       <r>    2.6297    1.0000 </r>
       <r>    2.6748    1.0000 </r>
       <r>    2.6900    1.0000 </r>
       <r>    2.7174    1.0000 </r>
       <r>    2.7501    1.0000 </r>
       <r>    2.7850    1.0000 </r>
       <r>    2.8473    1.0000 </r>
       <r>    2.8668    1.0000 </r>
       <r>    2.9047    1.0000 </r>
       <r>    2.9195    1.0000 </r>
       <r>    2.9494    1.0000 </r>
       <r>    2.9718    1.0000 </r>
       <r>    3.0268    1.0000 </r>
       <r>    3.0353    1.0000 </r>
       <r>    3.0496    1.0000 </r>
       <r>    3.0540    1.0000 </r>
       <r>    3.1162    1.0000 </r>
       <r>    3.1379    1.0000 </r>
       <r>    3.1410    1.0000 </r>
       <r>    3.1829    1.0000 </r>
       <r>    3.2055    1.0000 </r>
       <r>    3.3002    1.0000 </r>
       <r>    3.3078    1.0000 </r>
       <r>    3.3710    1.0000 </r>
       <r>    3.4511    1.0000 </r>
       <r>    3.5412    1.0000 </r>
       <r>    3.7562    1.0000 </r>
       <r>    4.1430    1.0000 </r>
       <r>    4.1514    1.0000 </r>
       <r>    4.2065    1.0000 </r>
       <r>    4.2092    1.0000 </r>
       <r>    4.9777    0.0000 </r>
       <r>    4.9812    0.0000 </r>
       <r>    5.1650    0.0000 </r>
       <r>    5.1753    0.0000 </r>
       <r>    5.6982    0.0000 </r>
       <r>    5.7022    0.0000 </r>
       <r>    5.8133    0.0000 </r>
       <r>    5.8173    0.0000 </r>
       <r>    6.0791    0.0000 </r>
       <r>    6.0911    0.0000 </r>
       <r>    6.1079    0.0000 </r>
       <r>    6.1260    0.0000 </r>
       <r>    6.2050    0.0000 </r>
       <r>    6.2091    0.0000 </r>
       <r>    6.2357    0.0000 </r>
       <r>    6.2377    0.0000 </r>
       <r>    7.0258    0.0000 </r>
       <r>    7.0410    0.0000 </r>
       <r>    7.3160    0.0000 </r>
       <r>    7.3258    0.0000 </r>
       <r>    7.7758    0.0000 </r>
       <r>    7.7764    0.0000 </r>
       <r>    7.8944    0.0000 </r>
       <r>    7.9036    0.0000 </r>
       <r>    7.9314    0.0000 </r>
       <r>    7.9532    0.0000 </r>
       <r>    8.1114    0.0000 </r>
       <r>    8.1150    0.0000 </r>
       <r>    8.2332    0.0000 </r>
       <r>    8.6142    0.0000 </r>
       <r>    8.6188    0.0000 </r>
       <r>    8.7481    0.0000 </r>
       <r>    8.7686    0.0000 </r>
       <r>    8.7873    0.0000 </r>
       <r>    8.9042    0.0000 </r>
       <r>    8.9716    0.0000 </r>
       <r>    9.0039    0.0000 </r>
       <r>    9.0146    0.0000 </r>
       <r>    9.0213    0.0000 </r>
       <r>    9.0954    0.0000 </r>
       <r>    9.1178    0.0000 </r>
       <r>    9.1263    0.0000 </r>
       <r>    9.1911    0.0000 </r>
       <r>    9.2139    0.0000 </r>
       <r>    9.3916    0.0000 </r>
       <r>    9.4125    0.0000 </r>
       <r>    9.4741    0.0000 </r>
       <r>    9.4899    0.0000 </r>
       <r>    9.7058    0.0000 </r>
       <r>    9.8067    0.0000 </r>
      </set>
      <set comment="kpoint 2">
       <r>  -40.1359    1.0000 </r>
       <r>  -40.1357    1.0000 </r>
       <r>  -39.8519    1.0000 </r>
       <r>  -39.8372    1.0000 </r>
       <r>  -39.5695    1.0000 </r>
       <r>  -39.5690    1.0000 </r>
       <r>  -18.9512    1.0000 </r>
       <r>  -18.9501    1.0000 </r>
       <r>  -18.8817    1.0000 </r>
       <r>  -18.8814    1.0000 </r>
       <r>  -18.8745    1.0000 </r>
       <r>  -18.8742    1.0000 </r>
       <r>  -18.7823    1.0000 </r>
       <r>  -18.7811    1.0000 </r>
       <r>  -18.7593    1.0000 </r>
       <r>  -18.7585    1.0000 </r>
       <r>  -18.7534    1.0000 </r>
       <r>  -18.7507    1.0000 </r>
       <r>  -18.7441    1.0000 </r>
       <r>  -18.7415    1.0000 </r>
       <r>  -18.7376    1.0000 </r>
       <r>  -18.7341    1.0000 </r>
       <r>  -18.6859    1.0000 </r>
       <r>  -18.6846    1.0000 </r>
       <r>  -18.6792    1.0000 </r>
       <r>  -18.6782    1.0000 </r>
       <r>  -18.6780    1.0000 </r>
       <r>  -18.6769    1.0000 </r>
       <r>  -18.6698    1.0000 </r>
       <r>  -18.6695    1.0000 </r>
       <r>  -18.6691    1.0000 </r>
       <r>  -18.6681    1.0000 </r>
       <r>  -18.6662    1.0000 </r>
       <r>  -18.6656    1.0000 </r>
       <r>  -18.6621    1.0000 </r>
       <r>  -18.6613    1.0000 </r>
       <r>  -18.6600    1.0000 </r>
       <r>  -18.6596    1.0000 </r>
       <r>  -18.6590    1.0000 </r>
       <r>  -18.6583    1.0000 </r>
       <r>  -18.6548    1.0000 </r>
       <r>  -18.6541    1.0000 </r>
       <r>  -18.6445    1.0000 </r>
       <r>  -18.6434    1.0000 </r>
       <r>  -18.6433    1.0000 </r>
       <r>  -18.6427    1.0000 </r>
       <r>  -18.6044    1.0000 </r>
       <r>  -18.6008    1.0000 </r>
       <r>  -18.5987    1.0000 </r>
       <r>  -18.5952    1.0000 </r>
       <r>  -18.5912    1.0000 </r>
       <r>  -18.5877    1.0000 </r>
       <r>  -18.5813    1.0000 </r>
       <r>  -18.5809    1.0000 </r>
       <r>  -18.5774    1.0000 </r>
       <r>  -18.5768    1.0000 </r>
       <r>  -18.5322    1.0000 </r>
       <r>  -18.5303    1.0000 </r>
       <r>  -18.5163    1.0000 </r>
       <r>  -18.5160    1.0000 </r>
       <r>  -18.5152    1.0000 </r>
       <r>  -18.5150    1.0000 </r>
       <r>  -18.5146    1.0000 </r>
       <r>  -18.5140    1.0000 </r>
       <r>  -18.5134    1.0000 </r>
       <r>  -18.5129    1.0000 </r>
       <r>  -18.5127    1.0000 </r>
       <r>  -18.5118    1.0000 </r>
       <r>  -18.4864    1.0000 </r>
       <r>  -18.4857    1.0000 </r>
       <r>  -18.4847    1.0000 </r>
       <r>  -18.4836    1.0000 </r>
       <r>  -18.4491    1.0000 </r>
       <r>  -18.4448    1.0000 </r>
       <r>  -18.4295    1.0000 </r>
       <r>  -18.4251    1.0000 </r>
       <r>  -18.4213    1.0000 </r>
       <r>  -18.4186    1.0000 </r>
       <r>  -18.4087    1.0000 </r>
       <r>  -18.4061    1.0000 </r>
       <r>  -18.3308    1.0000 </r>
       <r>  -18.3275    1.0000 </r>
       <r>  -18.2222    1.0000 </r>
       <r>  -18.2190    1.0000 </r>
       <r>  -18.1946    1.0000 </r>
       <r>  -18.1913    1.0000 </r>
       <r>  -13.5861    1.0000 </r>
       <r>  -13.4884    1.0000 </r>
       <r>  -12.9244    1.0000 </r>
       <r>  -12.8622    1.0000 </r>
       <r>  -12.8310    1.0000 </r>
       <r>  -12.7958    1.0000 </r>
       <r>  -12.7464    1.0000 </r>
       <r>  -12.7432    1.0000 </r>
       <r>  -12.7082    1.0000 </r>
       <r>  -12.7030    1.0000 </r>
       <r>  -12.6606    1.0000 </r>
       <r>  -12.6423    1.0000 </r>
       <r>  -12.6404    1.0000 </r>
       <r>  -12.5949    1.0000 </r>
       <r>  -12.0231    1.0000 </r>
       <r>  -11.9430    1.0000 </r>
       <r>   -9.2138    1.0000 </r>
       <r>   -9.0572    1.0000 </r>
       <r>   -8.9381    1.0000 </r>
       <r>   -8.7784    1.0000 </r>
       <r>   -8.4310    1.0000 </r>
       <r>   -8.4227    1.0000 </r>
       <r>   -8.2941    1.0000 </r>
       <r>   -8.2882    1.0000 </r>
       <r>   -8.2303    1.0000 </r>
       <r>   -8.2221    1.0000 </r>
       <r>   -8.0909    1.0000 </r>
       <r>   -8.0855    1.0000 </r>
       <r>   -7.7820    1.0000 </r>
       <r>   -7.6697    1.0000 </r>
       <r>   -7.6654    1.0000 </r>
       <r>   -7.5523    1.0000 </r>
       <r>   -6.0490    1.0000 </r>
       <r>   -6.0405    1.0000 </r>
       <r>   -5.8679    1.0000 </r>
       <r>   -5.8659    1.0000 </r>
       <r>   -5.8303    1.0000 </r>
       <r>   -5.8231    1.0000 </r>
       <r>   -5.7667    1.0000 </r>
       <r>   -5.6958    1.0000 </r>
       <r>   -5.6875    1.0000 </r>
       <r>   -5.6788    1.0000 </r>
       <r>   -5.5563    1.0000 </r>
       <r>   -5.4830    1.0000 </r>
       <r>   -4.5373    1.0000 </r>
       <r>   -4.3776    1.0000 </r>
       <r>   -4.3751    1.0000 </r>
       <r>   -4.2054    1.0000 </r>
       <r>   -1.3028    1.0000 </r>
       <r>   -1.0868    1.0000 </r>
       <r>   -0.9319    1.0000 </r>
       <r>   -0.7549    1.0000 </r>
       <r>   -0.4897    1.0000 </r>
       <r>   -0.2889    1.0000 </r>
       <r>   -0.1566    1.0000 </r>
       <r>   -0.0283    1.0000 </r>
       <r>    0.0413    1.0000 </r>
       <r>    0.0607    1.0000 </r>
       <r>    0.0815    1.0000 </r>
       <r>    0.1520    1.0000 </r>
       <r>    0.1795    1.0000 </r>
       <r>    0.1982    1.0000 </r>
       <r>    0.3418    1.0000 </r>
       <r>    0.3795    1.0000 </r>
       <r>    0.4264    1.0000 </r>
       <r>    0.4476    1.0000 </r>
       <r>    0.4586    1.0000 </r>
       <r>    0.5462    1.0000 </r>
       <r>    0.5684    1.0000 </r>
       <r>    0.5810    1.0000 </r>
       <r>    0.6259    1.0000 </r>
       <r>    0.6875    1.0000 </r>
       <r>    0.6916    1.0000 </r>
       <r>    0.7544    1.0000 </r>
       <r>    0.7952    1.0000 </r>
       <r>    0.9500    1.0000 </r>
       <r>    0.9658    1.0000 </r>
       <r>    1.0334    1.0000 </r>
       <r>    1.0439    1.0000 </r>
       <r>    1.1005    1.0000 </r>
       <r>    1.1420    1.0000 </r>
       <r>    1.1442    1.0000 </r>
       <r>    1.1790    1.0000 </r>
       <r>    1.2075    1.0000 </r>
       <r>    1.2474    1.0000 </r>
       <r>    1.3504    1.0000 </r>
       <r>    1.3601    1.0000 </r>
       <r>    1.4125    1.0000 </r>
       <r>    1.4217    1.0000 </r>
       <r>    1.5042    1.0000 </r>
       <r>    1.5083    1.0000 </r>
       <r>    1.5386    1.0000 </r>
       <r>    1.6041    1.0000 </r>
       <r>    1.6071    1.0000 </r>
       <r>    1.6408    1.0000 </r>
       <r>    1.7077    1.0000 </r>
       <r>    1.7189    1.0000 </r>
       <r>    1.8083    1.0000 </r>
       <r>    1.8272    1.0000 </r>
       <r>    1.8870    1.0000 </r>
       <r>    1.9203    1.0000 </r>
       <r>    1.9481    1.0000 </r>
       <r>    2.0580    1.0000 </r>
       <r>    2.0673    1.0000 </r>
       <r>    2.0821    1.0000 </r>
       <r>    2.1672    1.0000 </r>
       <r>    2.1923    1.0000 </r>
       <r>    2.2419    1.0000 </r>
       <r>    2.2644    1.0000 </r>
       <r>    2.3231    1.0000 </r>
       <r>    2.3960    1.0000 </r>
       <r>    2.4007    1.0000 </r>
       <r>    2.4322    1.0000 </r>
       <r>    2.5225    1.0000 </r>
       <r>    2.5583    1.0000 </r>
       <r>    2.5616    1.0000 </r>
       <r>    2.6297    1.0000 </r>
       <r>    2.6553    1.0000 </r>
       <r>    2.6910    1.0000 </r>
       <r>    2.7144    1.0000 </r>
       <r>    2.7336    1.0000 </r>
       <r>    2.7761    1.0000 </r>
       <r>    2.7937    1.0000 </r>
       <r>    2.8561    1.0000 </r>
       <r>    2.8928    1.0000 </r>
       <r>    2.9078    1.0000 </r>
       <r>    2.9330    1.0000 </r>
       <r>    2.9703    1.0000 </r>
       <r>    3.0308    1.0000 </r>
       <r>    3.0496    1.0000 </r>
       <r>    3.0690    1.0000 </r>
       <r>    3.1185    1.0000 </r>
       <r>    3.1492    1.0000 </r>
       <r>    3.2977    1.0000 </r>
       <r>    3.3151    1.0000 </r>
       <r>    3.3978    1.0000 </r>
       <r>    3.4043    1.0000 </r>
       <r>    3.4549    1.0000 </r>
       <r>    3.5091    1.0000 </r>
       <r>    3.5100    1.0000 </r>
       <r>    3.5774    1.0000 </r>
       <r>    3.5918    1.0000 </r>
       <r>    3.7412    1.0000 </r>
       <r>    3.8364    1.0000 </r>
       <r>    5.5238    0.0000 </r>
       <r>    5.5344    0.0000 </r>
       <r>    5.6823    0.0000 </r>
       <r>    5.6892    0.0000 </r>
       <r>    5.7131    0.0000 </r>
       <r>    5.7255    0.0000 </r>
       <r>    5.8705    0.0000 </r>
       <r>    5.8890    0.0000 </r>
       <r>    7.1409    0.0000 </r>
       <r>    7.1551    0.0000 </r>
       <r>    7.2289    0.0000 </r>
       <r>    7.3161    0.0000 </r>
       <r>    7.3758    0.0000 </r>
       <r>    7.3997    0.0000 </r>
       <r>    7.4149    0.0000 </r>
       <r>    7.4290    0.0000 </r>
       <r>    7.4493    0.0000 </r>
       <r>    7.4740    0.0000 </r>
       <r>    7.5793    0.0000 </r>
       <r>    7.6044    0.0000 </r>
       <r>    7.7820    0.0000 </r>
       <r>    7.7834    0.0000 </r>
       <r>    7.8337    0.0000 </r>
       <r>    7.8359    0.0000 </r>
       <r>    7.8621    0.0000 </r>
       <r>    7.8750    0.0000 </r>
       <r>    7.9109    0.0000 </r>
       <r>    7.9354    0.0000 </r>
       <r>    7.9518    0.0000 </r>
       <r>    7.9609    0.0000 </r>
       <r>    8.0163    0.0000 </r>
       <r>    8.0327    0.0000 </r>
       <r>    8.1198    0.0000 </r>
       <r>    8.1985    0.0000 </r>
       <r>    8.3953    0.0000 </r>
       <r>    8.4909    0.0000 </r>
       <r>    8.6320    0.0000 </r>
       <r>    8.6941    0.0000 </r>
       <r>    8.7155    0.0000 </r>
       <r>    8.7365    0.0000 </r>
       <r>    8.7406    0.0000 </r>
       <r>    8.8232    0.0000 </r>
       <r>    8.8900    0.0000 </r>
       <r>    8.9077    0.0000 </r>
       <r>    9.0781    0.0000 </r>
       <r>    9.2733    0.0000 </r>
       <r>    9.2964    0.0000 </r>
       <r>    9.3415    0.0000 </r>
       <r>    9.5608    0.0000 </r>
       <r>    9.6484    0.0000 </r>
      </set>
      <set comment="kpoint 3">
       <r>  -40.1359    1.0000 </r>
       <r>  -40.1357    1.0000 </r>
       <r>  -39.8519    1.0000 </r>
       <r>  -39.8372    1.0000 </r>
       <r>  -39.5695    1.0000 </r>
       <r>  -39.5690    1.0000 </r>
       <r>  -18.9516    1.0000 </r>
       <r>  -18.9497    1.0000 </r>
       <r>  -18.8817    1.0000 </r>
       <r>  -18.8814    1.0000 </r>
       <r>  -18.8745    1.0000 </r>
       <r>  -18.8743    1.0000 </r>
       <r>  -18.7823    1.0000 </r>
       <r>  -18.7812    1.0000 </r>
       <r>  -18.7592    1.0000 </r>
       <r>  -18.7585    1.0000 </r>
       <r>  -18.7536    1.0000 </r>
       <r>  -18.7509    1.0000 </r>
       <r>  -18.7442    1.0000 </r>
       <r>  -18.7416    1.0000 </r>
       <r>  -18.7376    1.0000 </r>
       <r>  -18.7342    1.0000 </r>
       <r>  -18.6854    1.0000 </r>
       <r>  -18.6841    1.0000 </r>
       <r>  -18.6792    1.0000 </r>
       <r>  -18.6783    1.0000 </r>
       <r>  -18.6779    1.0000 </r>
       <r>  -18.6767    1.0000 </r>
       <r>  -18.6700    1.0000 </r>
       <r>  -18.6688    1.0000 </r>
       <r>  -18.6685    1.0000 </r>
       <r>  -18.6678    1.0000 </r>
       <r>  -18.6666    1.0000 </r>
       <r>  -18.6659    1.0000 </r>
       <r>  -18.6620    1.0000 </r>
       <r>  -18.6613    1.0000 </r>
       <r>  -18.6598    1.0000 </r>
       <r>  -18.6595    1.0000 </r>
       <r>  -18.6592    1.0000 </r>
       <r>  -18.6588    1.0000 </r>
       <r>  -18.6552    1.0000 </r>
       <r>  -18.6546    1.0000 </r>
       <r>  -18.6449    1.0000 </r>
       <r>  -18.6434    1.0000 </r>
       <r>  -18.6432    1.0000 </r>
       <r>  -18.6427    1.0000 </r>
       <r>  -18.6044    1.0000 </r>
       <r>  -18.6008    1.0000 </r>
       <r>  -18.5987    1.0000 </r>
       <r>  -18.5952    1.0000 </r>
       <r>  -18.5911    1.0000 </r>
       <r>  -18.5876    1.0000 </r>
       <r>  -18.5814    1.0000 </r>
       <r>  -18.5809    1.0000 </r>
       <r>  -18.5774    1.0000 </r>
       <r>  -18.5767    1.0000 </r>
       <r>  -18.5321    1.0000 </r>
       <r>  -18.5303    1.0000 </r>
       <r>  -18.5163    1.0000 </r>
       <r>  -18.5159    1.0000 </r>
       <r>  -18.5152    1.0000 </r>
       <r>  -18.5150    1.0000 </r>
       <r>  -18.5146    1.0000 </r>
       <r>  -18.5140    1.0000 </r>
       <r>  -18.5134    1.0000 </r>
       <r>  -18.5129    1.0000 </r>
       <r>  -18.5127    1.0000 </r>
       <r>  -18.5119    1.0000 </r>
       <r>  -18.4864    1.0000 </r>
       <r>  -18.4856    1.0000 </r>
       <r>  -18.4847    1.0000 </r>
       <r>  -18.4837    1.0000 </r>
       <r>  -18.4491    1.0000 </r>
       <r>  -18.4448    1.0000 </r>
       <r>  -18.4295    1.0000 </r>
       <r>  -18.4251    1.0000 </r>
       <r>  -18.4213    1.0000 </r>
       <r>  -18.4186    1.0000 </r>
       <r>  -18.4087    1.0000 </r>
       <r>  -18.4061    1.0000 </r>
       <r>  -18.3309    1.0000 </r>
       <r>  -18.3274    1.0000 </r>
       <r>  -18.2222    1.0000 </r>
       <r>  -18.2190    1.0000 </r>
       <r>  -18.1946    1.0000 </r>
       <r>  -18.1913    1.0000 </r>
       <r>  -13.5860    1.0000 </r>
       <r>  -13.4886    1.0000 </r>
       <r>  -12.9349    1.0000 </r>
       <r>  -12.8347    1.0000 </r>
       <r>  -12.8304    1.0000 </r>
       <r>  -12.8035    1.0000 </r>
       <r>  -12.7463    1.0000 </r>
       <r>  -12.7415    1.0000 </r>
       <r>  -12.7147    1.0000 </r>
       <r>  -12.7099    1.0000 </r>
       <r>  -12.6647    1.0000 </r>
       <r>  -12.6418    1.0000 </r>
       <r>  -12.6351    1.0000 </r>
       <r>  -12.5958    1.0000 </r>
       <r>  -12.0224    1.0000 </r>
       <r>  -11.9445    1.0000 </r>
       <r>   -9.3481    1.0000 </r>
       <r>   -9.0711    1.0000 </r>
       <r>   -8.5800    1.0000 </r>
       <r>   -8.5504    1.0000 </r>
       <r>   -8.5342    1.0000 </r>
       <r>   -8.4902    1.0000 </r>
       <r>   -8.3189    1.0000 </r>
       <r>   -8.2939    1.0000 </r>
       <r>   -8.2695    1.0000 </r>
       <r>   -8.2307    1.0000 </r>
       <r>   -8.0652    1.0000 </r>
       <r>   -8.0647    1.0000 </r>
       <r>   -8.0253    1.0000 </r>
       <r>   -8.0242    1.0000 </r>
       <r>   -7.3906    1.0000 </r>
       <r>   -7.3894    1.0000 </r>
       <r>   -6.3921    1.0000 </r>
       <r>   -6.3913    1.0000 </r>
       <r>   -6.3573    1.0000 </r>
       <r>   -6.3554    1.0000 </r>
       <r>   -5.5719    1.0000 </r>
       <r>   -5.5040    1.0000 </r>
       <r>   -5.4326    1.0000 </r>
       <r>   -5.4134    1.0000 </r>
       <r>   -5.4069    1.0000 </r>
       <r>   -5.2996    1.0000 </r>
       <r>   -5.1825    1.0000 </r>
       <r>   -5.1428    1.0000 </r>
       <r>   -5.1081    1.0000 </r>
       <r>   -5.0387    1.0000 </r>
       <r>   -3.9133    1.0000 </r>
       <r>   -3.6004    1.0000 </r>
       <r>   -1.4154    1.0000 </r>
       <r>   -1.3203    1.0000 </r>
       <r>   -1.2737    1.0000 </r>
       <r>   -1.0545    1.0000 </r>
       <r>   -0.4767    1.0000 </r>
       <r>   -0.4741    1.0000 </r>
       <r>   -0.4359    1.0000 </r>
       <r>   -0.4188    1.0000 </r>
       <r>   -0.4169    1.0000 </r>
       <r>   -0.3691    1.0000 </r>
       <r>   -0.3124    1.0000 </r>
       <r>   -0.2815    1.0000 </r>
       <r>   -0.1656    1.0000 </r>
       <r>   -0.0484    1.0000 </r>
       <r>    0.0649    1.0000 </r>
       <r>    0.2291    1.0000 </r>
       <r>    0.2324    1.0000 </r>
       <r>    0.2978    1.0000 </r>
       <r>    0.3988    1.0000 </r>
       <r>    0.4646    1.0000 </r>
       <r>    0.4652    1.0000 </r>
       <r>    0.4829    1.0000 </r>
       <r>    0.5529    1.0000 </r>
       <r>    0.6925    1.0000 </r>
       <r>    0.7085    1.0000 </r>
       <r>    0.8043    1.0000 </r>
       <r>    0.8194    1.0000 </r>
       <r>    0.8585    1.0000 </r>
       <r>    0.9392    1.0000 </r>
       <r>    1.0086    1.0000 </r>
       <r>    1.0795    1.0000 </r>
       <r>    1.0842    1.0000 </r>
       <r>    1.2148    1.0000 </r>
       <r>    1.2527    1.0000 </r>
       <r>    1.3371    1.0000 </r>
       <r>    1.4118    1.0000 </r>
       <r>    1.4226    1.0000 </r>
       <r>    1.4893    1.0000 </r>
       <r>    1.5552    1.0000 </r>
       <r>    1.5674    1.0000 </r>
       <r>    1.5999    1.0000 </r>
       <r>    1.6141    1.0000 </r>
       <r>    1.6718    1.0000 </r>
       <r>    1.7123    1.0000 </r>
       <r>    1.7245    1.0000 </r>
       <r>    1.7678    1.0000 </r>
       <r>    1.8044    1.0000 </r>
       <r>    1.8388    1.0000 </r>
       <r>    1.9842    1.0000 </r>
       <r>    2.0226    1.0000 </r>
       <r>    2.0478    1.0000 </r>
       <r>    2.1058    1.0000 </r>
       <r>    2.1318    1.0000 </r>
       <r>    2.2022    1.0000 </r>
       <r>    2.2554    1.0000 </r>
       <r>    2.2874    1.0000 </r>
       <r>    2.3911    1.0000 </r>
       <r>    2.4425    1.0000 </r>
       <r>    2.4829    1.0000 </r>
       <r>    2.5132    1.0000 </r>
       <r>    2.5180    1.0000 </r>
       <r>    2.5352    1.0000 </r>
       <r>    2.5404    1.0000 </r>
       <r>    2.5669    1.0000 </r>
       <r>    2.5775    1.0000 </r>
       <r>    2.5782    1.0000 </r>
       <r>    2.5938    1.0000 </r>
       <r>    2.7101    1.0000 </r>
       <r>    2.7239    1.0000 </r>
       <r>    2.7373    1.0000 </r>
       <r>    2.7690    1.0000 </r>
       <r>    2.8167    1.0000 </r>
       <r>    2.8434    1.0000 </r>
       <r>    2.8734    1.0000 </r>
       <r>    2.8865    1.0000 </r>
       <r>    2.9373    1.0000 </r>
       <r>    2.9441    1.0000 </r>
       <r>    2.9695    1.0000 </r>
       <r>    2.9768    1.0000 </r>
       <r>    2.9819    1.0000 </r>
       <r>    3.0197    1.0000 </r>
       <r>    3.1610    1.0000 </r>
       <r>    3.2192    1.0000 </r>
       <r>    3.2997    1.0000 </r>
       <r>    3.3070    1.0000 </r>
       <r>    3.3520    1.0000 </r>
       <r>    3.3575    1.0000 </r>
       <r>    3.4031    1.0000 </r>
       <r>    3.4214    1.0000 </r>
       <r>    3.5199    1.0000 </r>
       <r>    3.5360    1.0000 </r>
       <r>    3.7037    1.0000 </r>
       <r>    4.1937    1.0000 </r>
       <r>    4.1991    1.0000 </r>
       <r>    4.2569    1.0000 </r>
       <r>    4.2589    1.0000 </r>
       <r>    5.0576    0.0000 </r>
       <r>    5.0601    0.0000 </r>
       <r>    5.2307    0.0000 </r>
       <r>    5.2322    0.0000 </r>
       <r>    5.7062    0.0000 </r>
       <r>    5.7097    0.0000 </r>
       <r>    5.8216    0.0000 </r>
       <r>    5.8255    0.0000 </r>
       <r>    6.1306    0.0000 </r>
       <r>    6.1400    0.0000 </r>
       <r>    6.1535    0.0000 </r>
       <r>    6.1681    0.0000 </r>
       <r>    6.2199    0.0000 </r>
       <r>    6.2271    0.0000 </r>
       <r>    6.2504    0.0000 </r>
       <r>    6.2591    0.0000 </r>
       <r>    6.7274    0.0000 </r>
       <r>    6.7439    0.0000 </r>
       <r>    7.0313    0.0000 </r>
       <r>    7.0426    0.0000 </r>
       <r>    7.1371    0.0000 </r>
       <r>    7.2294    0.0000 </r>
       <r>    7.4244    0.0000 </r>
       <r>    7.4694    0.0000 </r>
       <r>    7.6176    0.0000 </r>
       <r>    7.8015    0.0000 </r>
       <r>    7.9034    0.0000 </r>
       <r>    7.9529    0.0000 </r>
       <r>    7.9715    0.0000 </r>
       <r>    8.2973    0.0000 </r>
       <r>    8.3357    0.0000 </r>
       <r>    8.4115    0.0000 </r>
       <r>    8.6229    0.0000 </r>
       <r>    8.7522    0.0000 </r>
       <r>    8.9112    0.0000 </r>
       <r>    8.9380    0.0000 </r>
       <r>    8.9954    0.0000 </r>
       <r>    9.0365    0.0000 </r>
       <r>    9.0467    0.0000 </r>
       <r>    9.0626    0.0000 </r>
       <r>    9.0755    0.0000 </r>
       <r>    9.0980    0.0000 </r>
       <r>    9.1387    0.0000 </r>
       <r>    9.1596    0.0000 </r>
       <r>    9.4426    0.0000 </r>
       <r>    9.4472    0.0000 </r>
       <r>    9.5720    0.0000 </r>
       <r>    9.6995    0.0000 </r>
       <r>    9.7096    0.0000 </r>
       <r>    9.8181    0.0000 </r>
      </set>
      <set comment="kpoint 4">
       <r>  -40.1359    1.0000 </r>
       <r>  -40.1357    1.0000 </r>
       <r>  -39.8519    1.0000 </r>
       <r>  -39.8372    1.0000 </r>
       <r>  -39.5695    1.0000 </r>
       <r>  -39.5690    1.0000 </r>
       <r>  -18.9516    1.0000 </r>
       <r>  -18.9497    1.0000 </r>
       <r>  -18.8817    1.0000 </r>
       <r>  -18.8814    1.0000 </r>
       <r>  -18.8745    1.0000 </r>
       <r>  -18.8743    1.0000 </r>
       <r>  -18.7823    1.0000 </r>
       <r>  -18.7812    1.0000 </r>
       <r>  -18.7592    1.0000 </r>
       <r>  -18.7585    1.0000 </r>
       <r>  -18.7534    1.0000 </r>
       <r>  -18.7507    1.0000 </r>
       <r>  -18.7441    1.0000 </r>
       <r>  -18.7415    1.0000 </r>
       <r>  -18.7375    1.0000 </r>
       <r>  -18.7342    1.0000 </r>
       <r>  -18.6859    1.0000 </r>
       <r>  -18.6846    1.0000 </r>
       <r>  -18.6793    1.0000 </r>
       <r>  -18.6782    1.0000 </r>
       <r>  -18.6780    1.0000 </r>
       <r>  -18.6769    1.0000 </r>
       <r>  -18.6698    1.0000 </r>
       <r>  -18.6695    1.0000 </r>
       <r>  -18.6691    1.0000 </r>
       <r>  -18.6681    1.0000 </r>
       <r>  -18.6662    1.0000 </r>
       <r>  -18.6656    1.0000 </r>
       <r>  -18.6621    1.0000 </r>
       <r>  -18.6613    1.0000 </r>
       <r>  -18.6602    1.0000 </r>
       <r>  -18.6595    1.0000 </r>
       <r>  -18.6590    1.0000 </r>
       <r>  -18.6583    1.0000 </r>
       <r>  -18.6548    1.0000 </r>
       <r>  -18.6541    1.0000 </r>
       <r>  -18.6447    1.0000 </r>
       <r>  -18.6434    1.0000 </r>
       <r>  -18.6431    1.0000 </r>
       <r>  -18.6426    1.0000 </r>
       <r>  -18.6043    1.0000 </r>
       <r>  -18.6008    1.0000 </r>
       <r>  -18.5986    1.0000 </r>
       <r>  -18.5952    1.0000 </r>
       <r>  -18.5912    1.0000 </r>
       <r>  -18.5877    1.0000 </r>
       <r>  -18.5814    1.0000 </r>
       <r>  -18.5809    1.0000 </r>
       <r>  -18.5774    1.0000 </r>
       <r>  -18.5767    1.0000 </r>
       <r>  -18.5321    1.0000 </r>
       <r>  -18.5303    1.0000 </r>
       <r>  -18.5163    1.0000 </r>
       <r>  -18.5159    1.0000 </r>
       <r>  -18.5152    1.0000 </r>
       <r>  -18.5150    1.0000 </r>
       <r>  -18.5146    1.0000 </r>
       <r>  -18.5140    1.0000 </r>
       <r>  -18.5134    1.0000 </r>
       <r>  -18.5129    1.0000 </r>
       <r>  -18.5127    1.0000 </r>
       <r>  -18.5119    1.0000 </r>
       <r>  -18.4864    1.0000 </r>
       <r>  -18.4856    1.0000 </r>
       <r>  -18.4847    1.0000 </r>
       <r>  -18.4837    1.0000 </r>
       <r>  -18.4491    1.0000 </r>
       <r>  -18.4448    1.0000 </r>
       <r>  -18.4295    1.0000 </r>
       <r>  -18.4251    1.0000 </r>
       <r>  -18.4213    1.0000 </r>
       <r>  -18.4186    1.0000 </r>
       <r>  -18.4087    1.0000 </r>
       <r>  -18.4061    1.0000 </r>
       <r>  -18.3309    1.0000 </r>
       <r>  -18.3274    1.0000 </r>
       <r>  -18.2222    1.0000 </r>
       <r>  -18.2190    1.0000 </r>
       <r>  -18.1946    1.0000 </r>
       <r>  -18.1913    1.0000 </r>
       <r>  -13.5858    1.0000 </r>
       <r>  -13.4886    1.0000 </r>
       <r>  -12.9233    1.0000 </r>
[...]
       <r>    8.8078    0.0000 </r>
       <r>    8.8229    0.0000 </r>
       <r>    8.8397    0.0000 </r>
       <r>    8.8800    0.0000 </r>
       <r>    8.8969    0.0000 </r>
       <r>    8.9167    0.0000 </r>
       <r>    8.9453    0.0000 </r>
       <r>    9.6374    0.0000 </r>
       <r>    9.8506    0.0000 </r>
      </set>
     </set>
    </set>
   </array>
  </eigenvalues>
  <separator name="orbital magnetization" >
   <v name="MAGDIPOLOUT">      0.00000000      0.00000000      0.00000000</v>
  </separator>
  <dos>
   <i name="efermi">      4.28312066 </i>
   <total>
    <array>
     <dimension dim="1">gridpoints</dimension>
     <dimension dim="2">spin</dimension>
     <field>energy</field>
     <field>total</field>
     <field>integrated</field>
     <set>
      <set comment="spin 1">
       <r>   -42.6506     0.0000     0.0000 </r>
       <r>   -42.4662     0.0000     0.0000 </r>
       <r>   -42.2818     0.0000     0.0000 </r>
       <r>   -42.0974     0.0000     0.0000 </r>
       <r>   -41.9130     0.0000     0.0000 </r>
       <r>   -41.7286     0.0000     0.0000 </r>
       <r>   -41.5441     0.0000     0.0000 </r>
       <r>   -41.3597     0.0000     0.0000 </r>
       <r>   -41.1753     0.0000     0.0000 </r>
       <r>   -40.9909     0.0000     0.0000 </r>
       <r>   -40.8065     0.0000     0.0000 </r>
       <r>   -40.6221     0.0000     0.0000 </r>
       <r>   -40.4377     0.0000     0.0000 </r>
       <r>   -40.2532     0.0000     0.0000 </r>
       <r>   -40.0688     0.0000     4.0000 </r>
       <r>   -39.8844     0.0000     4.0000 </r>
       <r>   -39.7000     0.0000     8.0000 </r>
       <r>   -39.5156     0.0000    12.0000 </r>
       <r>   -39.3312     0.0000    12.0000 </r>
       <r>   -39.1467     0.0000    12.0000 </r>
       <r>   -38.9623     0.0000    12.0000 </r>
       <r>   -38.7779     0.0000    12.0000 </r>
       <r>   -38.5935     0.0000    12.0000 </r>
       <r>   -38.4091     0.0000    12.0000 </r>
       <r>   -38.2247     0.0000    12.0000 </r>
       <r>   -38.0402     0.0000    12.0000 </r>
       <r>   -37.8558     0.0000    12.0000 </r>
       <r>   -37.6714     0.0000    12.0000 </r>
       <r>   -37.4870     0.0000    12.0000 </r>
       <r>   -37.3026     0.0000    12.0000 </r>
       <r>   -37.1182     0.0000    12.0000 </r>
       <r>   -36.9338     0.0000    12.0000 </r>
       <r>   -36.7493     0.0000    12.0000 </r>
       <r>   -36.5649     0.0000    12.0000 </r>
       <r>   -36.3805     0.0000    12.0000 </r>
       <r>   -36.1961     0.0000    12.0000 </r>
       <r>   -36.0117     0.0000    12.0000 </r>
       <r>   -35.8273     0.0000    12.0000 </r>
       <r>   -35.6428     0.0000    12.0000 </r>
       <r>   -35.4584     0.0000    12.0000 </r>
       <r>   -35.2740     0.0000    12.0000 </r>
       <r>   -35.0896     0.0000    12.0000 </r>
       <r>   -34.9052     0.0000    12.0000 </r>
       <r>   -34.7208     0.0000    12.0000 </r>
       <r>   -34.5364     0.0000    12.0000 </r>
       <r>   -34.3519     0.0000    12.0000 </r>
       <r>   -34.1675     0.0000    12.0000 </r>
       <r>   -33.9831     0.0000    12.0000 </r>
       <r>   -33.7987     0.0000    12.0000 </r>
       <r>   -33.6143     0.0000    12.0000 </r>
       <r>   -33.4299     0.0000    12.0000 </r>
       <r>   -33.2454     0.0000    12.0000 </r>
       <r>   -33.0610     0.0000    12.0000 </r>
       <r>   -32.8766     0.0000    12.0000 </r>
       <r>   -32.6922     0.0000    12.0000 </r>
       <r>   -32.5078     0.0000    12.0000 </r>
       <r>   -32.3234     0.0000    12.0000 </r>
       <r>   -32.1390     0.0000    12.0000 </r>
       <r>   -31.9545     0.0000    12.0000 </r>
       <r>   -31.7701     0.0000    12.0000 </r>
       <r>   -31.5857     0.0000    12.0000 </r>
       <r>   -31.4013     0.0000    12.0000 </r>
       <r>   -31.2169     0.0000    12.0000 </r>
       <r>   -31.0325     0.0000    12.0000 </r>
       <r>   -30.8480     0.0000    12.0000 </r>
       <r>   -30.6636     0.0000    12.0000 </r>
       <r>   -30.4792     0.0000    12.0000 </r>
       <r>   -30.2948     0.0000    12.0000 </r>
       <r>   -30.1104     0.0000    12.0000 </r>
       <r>   -29.9260     0.0000    12.0000 </r>
       <r>   -29.7415     0.0000    12.0000 </r>
       <r>   -29.5571     0.0000    12.0000 </r>
       <r>   -29.3727     0.0000    12.0000 </r>
       <r>   -29.1883     0.0000    12.0000 </r>
       <r>   -29.0039     0.0000    12.0000 </r>
       <r>   -28.8195     0.0000    12.0000 </r>
       <r>   -28.6351     0.0000    12.0000 </r>
       <r>   -28.4506     0.0000    12.0000 </r>
       <r>   -28.2662     0.0000    12.0000 </r>
       <r>   -28.0818     0.0000    12.0000 </r>
       <r>   -27.8974     0.0000    12.0000 </r>
       <r>   -27.7130     0.0000    12.0000 </r>
       <r>   -27.5286     0.0000    12.0000 </r>
       <r>   -27.3441     0.0000    12.0000 </r>
       <r>   -27.1597     0.0000    12.0000 </r>
       <r>   -26.9753     0.0000    12.0000 </r>
       <r>   -26.7909     0.0000    12.0000 </r>
       <r>   -26.6065     0.0000    12.0000 </r>
       <r>   -26.4221     0.0000    12.0000 </r>
       <r>   -26.2377     0.0000    12.0000 </r>
       <r>   -26.0532     0.0000    12.0000 </r>
       <r>   -25.8688     0.0000    12.0000 </r>
       <r>   -25.6844     0.0000    12.0000 </r>
       <r>   -25.5000     0.0000    12.0000 </r>
       <r>   -25.3156     0.0000    12.0000 </r>
       <r>   -25.1312     0.0000    12.0000 </r>
       <r>   -24.9467     0.0000    12.0000 </r>
       <r>   -24.7623     0.0000    12.0000 </r>
       <r>   -24.5779     0.0000    12.0000 </r>
       <r>   -24.3935     0.0000    12.0000 </r>
       <r>   -24.2091     0.0000    12.0000 </r>
       <r>   -24.0247     0.0000    12.0000 </r>
       <r>   -23.8403     0.0000    12.0000 </r>
       <r>   -23.6558     0.0000    12.0000 </r>
       <r>   -23.4714     0.0000    12.0000 </r>
       <r>   -23.2870     0.0000    12.0000 </r>
       <r>   -23.1026     0.0000    12.0000 </r>
       <r>   -22.9182     0.0000    12.0000 </r>
       <r>   -22.7338     0.0000    12.0000 </r>
       <r>   -22.5493     0.0000    12.0000 </r>
       <r>   -22.3649     0.0000    12.0000 </r>
       <r>   -22.1805     0.0000    12.0000 </r>
       <r>   -21.9961     0.0000    12.0000 </r>
       <r>   -21.8117     0.0000    12.0000 </r>
       <r>   -21.6273     0.0000    12.0000 </r>
       <r>   -21.4428     0.0000    12.0000 </r>
       <r>   -21.2584     0.0000    12.0000 </r>
       <r>   -21.0740     0.0000    12.0000 </r>
       <r>   -20.8896     0.0000    12.0000 </r>
       <r>   -20.7052     0.0000    12.0000 </r>
       <r>   -20.5208     0.0000    12.0000 </r>
       <r>   -20.3364     0.0000    12.0000 </r>
       <r>   -20.1519     0.0000    12.0000 </r>
       <r>   -19.9675     0.0000    12.0000 </r>
       <r>   -19.7831     0.0000    12.0000 </r>
       <r>   -19.5987     0.0000    12.0000 </r>
       <r>   -19.4143     0.0000    12.0000 </r>
       <r>   -19.2299     0.0000    12.0000 </r>
       <r>   -19.0454     0.0000    12.0000 </r>
       <r>   -18.8610     0.0000    24.0000 </r>
       <r>   -18.6766     0.0000    56.0000 </r>
       <r>   -18.4922     0.0000   136.0000 </r>
       <r>   -18.3078     0.0000   164.0000 </r>
       <r>   -18.1234     0.0000   172.0000 </r>
       <r>   -17.9390     0.0000   172.0000 </r>
       <r>   -17.7545     0.0000   172.0000 </r>
       <r>   -17.5701     0.0000   172.0000 </r>
       <r>   -17.3857     0.0000   172.0000 </r>
       <r>   -17.2013     0.0000   172.0000 </r>
       <r>   -17.0169     0.0000   172.0000 </r>
       <r>   -16.8325     0.0000   172.0000 </r>
       <r>   -16.6480     0.0000   172.0000 </r>
       <r>   -16.4636     0.0000   172.0000 </r>
       <r>   -16.2792     0.0000   172.0000 </r>
       <r>   -16.0948     0.0000   172.0000 </r>
       <r>   -15.9104     0.0000   172.0000 </r>
       <r>   -15.7260     0.0000   172.0000 </r>
       <r>   -15.5416     0.0000   172.0000 </r>
       <r>   -15.3571     0.0000   172.0000 </r>
       <r>   -15.1727     0.0000   172.0000 </r>
       <r>   -14.9883     0.0000   172.0000 </r>
       <r>   -14.8039     0.0000   172.0000 </r>
       <r>   -14.6195     0.0000   172.0000 </r>
       <r>   -14.4351     0.0000   172.0000 </r>
       <r>   -14.2506     0.0000   172.0000 </r>
       <r>   -14.0662     0.0000   172.0000 </r>
       <r>   -13.8818     0.0000   172.0000 </r>
       <r>   -13.6974     0.0000   172.0000 </r>
       <r>   -13.5130     0.0000   174.0000 </r>
       <r>   -13.3286     0.0000   176.0000 </r>
       <r>   -13.1441     0.0000   176.0000 </r>
       <r>   -12.9597     0.0000   176.0000 </r>
       <r>   -12.7753     0.0000   184.0000 </r>
       <r>   -12.5909     0.0000   200.0000 </r>
       <r>   -12.4065     0.0000   200.0000 </r>
       <r>   -12.2221     0.0000   200.0000 </r>
       <r>   -12.0377     0.0000   200.0000 </r>
       <r>   -11.8532     0.0000   204.0000 </r>
       <r>   -11.6688     0.0000   204.0000 </r>
       <r>   -11.4844     0.0000   204.0000 </r>
       <r>   -11.3000     0.0000   204.0000 </r>
       <r>   -11.1156     0.0000   204.0000 </r>
       <r>   -10.9312     0.0000   204.0000 </r>
       <r>   -10.7467     0.0000   204.0000 </r>
       <r>   -10.5623     0.0000   204.0000 </r>
       <r>   -10.3779     0.0000   204.0000 </r>
       <r>   -10.1935     0.0000   204.0000 </r>
       <r>   -10.0091     0.0000   204.0000 </r>
       <r>    -9.8247     0.0000   204.0000 </r>
       <r>    -9.6403     0.0000   204.0000 </r>
       <r>    -9.4558     0.0000   204.0000 </r>
       <r>    -9.2714     6.0717   204.2496 </r>
       <r>    -9.0870    22.3802   206.3305 </r>
       <r>    -8.9026    13.2947   208.2222 </r>
       <r>    -8.7182    12.5433   211.1257 </r>
       <r>    -8.5338    18.3878   213.5896 </r>
       <r>    -8.3493    24.1052   218.4803 </r>
       <r>    -8.1649    15.9745   221.5993 </r>
       <r>    -7.9805    21.9768   226.4183 </r>
       <r>    -7.7961    15.7942   229.7914 </r>
       <r>    -7.6117    22.4494   233.2206 </r>
       <r>    -7.4273     4.4056   235.9147 </r>
       <r>    -7.2429     0.0000   236.0000 </r>
       <r>    -7.0584     0.0000   236.0000 </r>
       <r>    -6.8740     0.0000   236.0000 </r>
       <r>    -6.6896     0.0000   236.0000 </r>
       <r>    -6.5052     0.0000   236.0000 </r>
       <r>    -6.3208     6.0614   236.2038 </r>
       <r>    -6.1364    23.9906   238.9771 </r>
       <r>    -5.9519    20.1478   243.2331 </r>
       <r>    -5.7675    32.3822   247.3581 </r>
       <r>    -5.5831    21.1877   251.8967 </r>
       <r>    -5.3987    20.3419   255.7423 </r>
       <r>    -5.2143    12.1956   258.8904 </r>
       <r>    -5.0299     3.6704   260.1045 </r>
       <r>    -4.8454     7.6223   261.2493 </r>
       <r>    -4.6610     9.4025   262.7650 </r>
       <r>    -4.4766     7.8680   264.5377 </r>
       <r>    -4.2922     7.0403   265.7454 </r>
       <r>    -4.1078     5.5723   267.0020 </r>
       <r>    -3.9234     2.3326   267.7298 </r>
       <r>    -3.7390     0.6158   267.9687 </r>
       <r>    -3.5545     0.0000   268.0000 </r>
       <r>    -3.3701     0.0000   268.0000 </r>
       <r>    -3.1857     0.0000   268.0000 </r>
       <r>    -3.0013     0.0000   268.0000 </r>
       <r>    -2.8169     0.0000   268.0000 </r>
       <r>    -2.6325     0.0000   268.0000 </r>
       <r>    -2.4480     0.0000   268.0000 </r>
       <r>    -2.2636     0.0000   268.0000 </r>
       <r>    -2.0792     0.0000   268.0000 </r>
       <r>    -1.8948     0.0000   268.0000 </r>
       <r>    -1.7104     0.0000   268.0000 </r>
       <r>    -1.5260     0.0041   268.0000 </r>
       <r>    -1.3416     3.0872   268.2176 </r>
       <r>    -1.1571    11.2469   269.5453 </r>
       <r>    -0.9727    12.9135   271.6362 </r>
       <r>    -0.7883     9.5768   273.9304 </r>
       <r>    -0.6039     4.9714   275.2285 </r>
       <r>    -0.4195    19.7093   277.2098 </r>
       <r>    -0.2351    23.9176   281.2303 </r>
       <r>    -0.0506    42.7171   287.5679 </r>
       <r>     0.1338    34.2050   294.4786 </r>
       <r>     0.3182    40.3635   300.2944 </r>
       <r>     0.5026    49.7538   307.5614 </r>
       <r>     0.6870    40.4409   315.3129 </r>
       <r>     0.8714    32.2098   321.1695 </r>
       <r>     1.0558    51.7388   330.0329 </r>
       <r>     1.2403    38.8849   338.2812 </r>
       <r>     1.4247    48.7725   345.8692 </r>
       <r>     1.6091    59.7120   356.8408 </r>
       <r>     1.7935    35.9159   365.3646 </r>
       <r>     1.9779    40.3769   372.3764 </r>
       <r>     2.1623    44.6600   380.1335 </r>
       <r>     2.3468    53.8709   388.5463 </r>
       <r>     2.5312    52.7281   398.9096 </r>
       <r>     2.7156    65.2777   410.2222 </r>
       <r>     2.9000    70.7870   421.8182 </r>
       <r>     3.0844    54.2436   434.2357 </r>
       <r>     3.2688    30.4963   441.8407 </r>
       <r>     3.4533    37.7445   448.7408 </r>
       <r>     3.6377    16.7617   453.7573 </r>
       <r>     3.8221    18.2953   456.4959 </r>
       <r>     4.0065     8.9288   459.0591 </r>
       <r>     4.1909     1.2098   459.9715 </r>
       <r>     4.3753     0.0000   460.0000 </r>
       <r>     4.5597     0.0000   460.0000 </r>
       <r>     4.7442     0.0000   460.0000 </r>
       <r>     4.9286     0.0000   460.0000 </r>
       <r>     5.1130     0.8903   460.0443 </r>
       <r>     5.2974     3.8789   460.4318 </r>
       <r>     5.4818     7.9995   461.5269 </r>
       <r>     5.6662     9.6035   463.2421 </r>
       <r>     5.8507    23.7017   466.9113 </r>
       <r>     6.0351    12.6891   469.6994 </r>
       <r>     6.2195    11.5943   471.8828 </r>
       <r>     6.4039    13.3405   474.1721 </r>
       <r>     6.5883    15.1920   476.8034 </r>
       <r>     6.7727    17.0774   479.7757 </r>
       <r>     6.9571    20.3246   483.1868 </r>
       <r>     7.1416    26.6798   487.4504 </r>
       <r>     7.3260    36.1761   493.2964 </r>
       <r>     7.5104    28.0772   500.5403 </r>
       <r>     7.6948    40.1948   505.8065 </r>
       <r>     7.8792    51.7624   514.8444 </r>
       <r>     8.0636    26.2345   522.0699 </r>
       <r>     8.2481    18.3690   525.9115 </r>
       <r>     8.4325    20.6798   529.4182 </r>
       <r>     8.6169    24.8156   533.6513 </r>
       <r>     8.8013    50.3380   539.5626 </r>
       <r>     8.9857    28.9645   546.9767 </r>
       <r>     9.1701    16.6378   550.9944 </r>
       <r>     9.3545    13.5346   553.7921 </r>
       <r>     9.5390    11.3710   556.2101 </r>
       <r>     9.7234    11.7338   558.5807 </r>
       <r>     9.9078     2.7984   559.7654 </r>
       <r>    10.0922     0.1990   559.9956 </r>
       <r>    10.2766     0.0000   560.0000 </r>
       <r>    10.4610     0.0000   560.0000 </r>
       <r>    10.6455     0.0000   560.0000 </r>
       <r>    10.8299     0.0000   560.0000 </r>
       <r>    11.0143     0.0000   560.0000 </r>
       <r>    11.1987     0.0000   560.0000 </r>
       <r>    11.3831     0.0000   560.0000 </r>
       <r>    11.5675     0.0000   560.0000 </r>
       <r>    11.7520     0.0000   560.0000 </r>
       <r>    11.9364     0.0000   560.0000 </r>
       <r>    12.1208     0.0000   560.0000 </r>
       <r>    12.3052     0.0000   560.0000 </r>
       <r>    12.4896     0.0000   560.0000 </r>
       <r>    12.6740     0.0000   560.0000 </r>
      </set>
     </set>
    </array>
   </total>
  </dos>
 </calculation>
 <structure name="finalpos" >
  <crystal>
   <varray name="basis" >
    <v>      11.17850000       0.00000000       0.00000000 </v>
    <v>       0.00000000       9.57460000       0.00000000 </v>
    <v>       0.00000000       0.00000000      11.18240000 </v>
   </varray>
   <i name="volume">   1196.84853820 </i>
   <varray name="rec_basis" >
    <v>       0.08945744       0.00000000       0.00000000 </v>
    <v>       0.00000000       0.10444301       0.00000000 </v>
    <v>       0.00000000       0.00000000       0.08942624 </v>
   </varray>
  </crystal>
  <varray name="positions" >
   <v>       0.37539000       0.00017000       0.43687000 </v>
   <v>       0.62539000       0.99984000       0.43687000 </v>
   <v>       0.37539000       0.00017000       0.93687000 </v>
   <v>       0.37461000       0.00017000       0.68687000 </v>
   <v>       0.62539000       0.99984000       0.93687000 </v>
   <v>       0.62461000       0.99984000       0.68687000 </v>
   <v>       0.12461000       0.99984000       0.18687000 </v>
   <v>       0.87539000       0.00017000       0.43687000 </v>
   <v>       0.62461000       0.99984000       0.18687000 </v>
   <v>       0.12461000       0.99984000       0.68687000 </v>
   <v>       0.87539000       0.00017000       0.93687000 </v>
   <v>       0.00013000       0.29519000       0.06281000 </v>
   <v>       0.25013000       0.70481000       0.06281000 </v>
   <v>       0.24987000       0.29519000       0.31282000 </v>
   <v>       0.49987000       0.70481000       0.31282000 </v>
   <v>       0.50013000       0.29519000       0.06281000 </v>
   <v>       0.75013000       0.70481000       0.06281000 </v>
   <v>       0.74987000       0.29519000       0.31282000 </v>
   <v>       0.99987000       0.70481000       0.31282000 </v>
   <v>       0.00013000       0.29519000       0.56281000 </v>
   <v>       0.25013000       0.70481000       0.56281000 </v>
   <v>       0.24987000       0.29519000       0.81282000 </v>
   <v>       0.49987000       0.70481000       0.81282000 </v>
   <v>       0.50013000       0.29519000       0.56281000 </v>
   <v>       0.75013000       0.70481000       0.56281000 </v>
   <v>       0.74987000       0.29519000       0.81282000 </v>
   <v>       0.99987000       0.70481000       0.81282000 </v>
   <v>       0.25005000       0.32677000       0.06286000 </v>
   <v>       0.00005000       0.67323000       0.06286000 </v>
   <v>       0.49995000       0.32677000       0.31286000 </v>
   <v>       0.24995000       0.67323000       0.31286000 </v>
   <v>       0.75005000       0.32677000       0.06286000 </v>
   <v>       0.50005000       0.67323000       0.06286000 </v>
   <v>       0.99995000       0.32677000       0.31286000 </v>
   <v>       0.74995000       0.67323000       0.31286000 </v>
   <v>       0.25005000       0.32677000       0.56286000 </v>
   <v>       0.00005000       0.67323000       0.56286000 </v>
   <v>       0.49995000       0.32677000       0.81286000 </v>
   <v>       0.24995000       0.67323000       0.81286000 </v>
   <v>       0.75005000       0.32677000       0.56286000 </v>
   <v>       0.50005000       0.67323000       0.56286000 </v>
   <v>       0.99995000       0.32677000       0.81286000 </v>
   <v>       0.74995000       0.67323000       0.81286000 </v>
   <v>       0.49987000       0.07798000       0.06246000 </v>
   <v>       0.24987000       0.92202000       0.06246000 </v>
   <v>       0.25013000       0.07798000       0.31246000 </v>
   <v>       0.00013000       0.92202000       0.31246000 </v>
   <v>       0.99987000       0.07798000       0.06246000 </v>
   <v>       0.74987000       0.92202000       0.06246000 </v>
   <v>       0.75013000       0.07798000       0.31246000 </v>
   <v>       0.50013000       0.92202000       0.31246000 </v>
   <v>       0.49987000       0.07798000       0.56246000 </v>
   <v>       0.24987000       0.92202000       0.56246000 </v>
   <v>       0.25013000       0.07798000       0.81246000 </v>
   <v>       0.00013000       0.92202000       0.81246000 </v>
   <v>       0.99987000       0.07798000       0.56246000 </v>
   <v>       0.74987000       0.92202000       0.56246000 </v>
   <v>       0.75013000       0.07798000       0.81246000 </v>
   <v>       0.50013000       0.92202000       0.81246000 </v>
  </varray>
 </structure>
</modeling>
