<?xml version="1.0" encoding="ISO-8859-1"?>
<modeling>
 <generator>
  <i name="program" type="string">vasp </i>
  <i name="version" type="string">5.4.4.18Apr17-6-g9f103f2a35  </i>
  <i name="subversion" type="string">(build Jul 31 2017 11:33:29) complex            parallel </i>
  <i name="platform" type="string">LinuxIFC </i>
  <i name="date" type="string">2021 09 29 </i>
  <i name="time" type="string">16:47:30 </i>
 </generator>
 <incar>
  <i type="string" name="SYSTEM"> La2O2S</i>
  <i type="string" name="PREC">normal</i>
  <i type="int" name="NELMIN">     4</i>
  <i type="int" name="IBRION">     2</i>
  <i type="int" name="NFREE">    10</i>
  <i name="EDIFF">      0.00000100</i>
  <i name="EDIFFG">     -0.01000000</i>
  <i type="int" name="NSW">     1</i>
  <i type="int" name="ISIF">     2</i>
  <i name="ENCUT">    600.00000000</i>
  <i name="ENAUG">    900.00000000</i>
  <i type="int" name="ISMEAR">    -5</i>
  <i type="logical" name="LWAVE"> F  </i>
  <i type="logical" name="LCHARG"> F  </i>
  <v type="int" name="KPOINT_BSE">    -1     0     0     0</v>
 </incar>
 <structure name="primitive_cell" >
  <crystal>
   <varray name="basis" >
    <v>      11.17850000       0.00000000       0.00000000 </v>
    <v>       0.00000000       9.57460000       0.00000000 </v>
    <v>       0.00000000       0.00000000      11.18240000 </v>
   </varray>
   <i name="volume">   1196.84853820 </i>
   <varray name="rec_basis" >
    <v>       0.08945744       0.00000000       0.00000000 </v>
    <v>       0.00000000       0.10444301       0.00000000 </v>
    <v>       0.00000000       0.00000000       0.08942624 </v>
   </varray>
  </crystal>
  <varray name="positions" >
   <v>       0.37539000       0.00017000       0.43687000 </v>
   <v>      -0.49987000      -0.07798000       0.31246000 </v>
   <v>       0.25013000       0.07798000       0.31246000 </v>
   <v>       0.49987000       0.07798000      -0.43754000 </v>
   <v>       0.24987000      -0.07798000      -0.43754000 </v>
   <v>      -0.37461000      -0.00016000       0.43687000 </v>
   <v>       0.37461000       0.00017000       0.18687000 </v>
   <v>       0.37461000       0.00017000      -0.31313000 </v>
   <v>       0.49987000      -0.29519000       0.31282000 </v>
   <v>       0.24987000       0.29519000       0.31282000 </v>
   <v>      -0.49987000       0.29519000      -0.43719000 </v>
   <v>       0.25013000      -0.29519000      -0.43719000 </v>
   <v>       0.49995000       0.32677000       0.31286000 </v>
   <v>       0.24995000      -0.32677000       0.31286000 </v>
   <v>      -0.49995000      -0.32677000      -0.43714000 </v>
   <v>       0.25005000       0.32677000      -0.43714000 </v>
   <v>      -0.37539000      -0.00016000       0.18687000 </v>
   <v>       0.12461000      -0.00016000       0.18687000 </v>
   <v>       0.49987000       0.07798000       0.06246000 </v>
   <v>      -0.24987000       0.07798000       0.31246000 </v>
   <v>      -0.25013000      -0.07798000      -0.43754000 </v>
   <v>       0.24987000      -0.07798000       0.06246000 </v>
   <v>       0.00013000      -0.07798000       0.31246000 </v>
   <v>      -0.49987000      -0.07798000      -0.18754000 </v>
   <v>      -0.00013000       0.07798000      -0.43754000 </v>
   <v>       0.25013000       0.07798000      -0.18754000 </v>
   <v>      -0.49987000       0.29519000       0.06281000 </v>
   <v>      -0.25013000       0.29519000       0.31282000 </v>
   <v>       0.25013000      -0.29519000       0.06281000 </v>
   <v>      -0.24987000      -0.29519000      -0.43719000 </v>
   <v>      -0.00013000      -0.29519000       0.31282000 </v>
   <v>       0.00013000       0.29519000      -0.43719000 </v>
   <v>       0.49987000      -0.29519000      -0.18718000 </v>
   <v>       0.24987000       0.29519000      -0.18718000 </v>
   <v>      -0.49995000      -0.32677000       0.06286000 </v>
   <v>       0.25005000       0.32677000       0.06286000 </v>
   <v>      -0.25005000      -0.32677000       0.31286000 </v>
   <v>      -0.24995000       0.32677000      -0.43714000 </v>
   <v>      -0.00005000       0.32677000       0.31286000 </v>
   <v>       0.00005000      -0.32677000      -0.43714000 </v>
   <v>       0.49995000       0.32677000      -0.18714000 </v>
   <v>       0.24995000      -0.32677000      -0.18714000 </v>
   <v>      -0.12461000       0.00017000       0.43687000 </v>
   <v>      -0.25013000      -0.07798000       0.06246000 </v>
   <v>      -0.00013000       0.07798000       0.06246000 </v>
   <v>      -0.24987000       0.07798000      -0.18754000 </v>
   <v>       0.00013000      -0.07798000      -0.18754000 </v>
   <v>      -0.12539000       0.00017000       0.18687000 </v>
   <v>      -0.12539000       0.00017000      -0.31313000 </v>
   <v>       0.12539000      -0.00016000      -0.06313000 </v>
   <v>      -0.37461000      -0.00016000      -0.06313000 </v>
   <v>      -0.24987000      -0.29519000       0.06281000 </v>
   <v>       0.00013000       0.29519000       0.06281000 </v>
   <v>      -0.25013000       0.29519000      -0.18718000 </v>
   <v>      -0.00013000      -0.29519000      -0.18718000 </v>
   <v>      -0.24995000       0.32677000       0.06286000 </v>
   <v>       0.00005000      -0.32677000       0.06286000 </v>
   <v>      -0.25005000      -0.32677000      -0.18714000 </v>
   <v>      -0.00005000       0.32677000      -0.18714000 </v>
  </varray>
 </structure>
 <varray name="primitive_index" >
  <v type="int" >        1 </v>
  <v type="int" >       51 </v>
  <v type="int" >       46 </v>
  <v type="int" >       52 </v>
  <v type="int" >       53 </v>
  <v type="int" >        3 </v>
  <v type="int" >        2 </v>
  <v type="int" >        9 </v>
  <v type="int" >       15 </v>
  <v type="int" >       14 </v>
  <v type="int" >       24 </v>
  <v type="int" >       21 </v>
  <v type="int" >       30 </v>
  <v type="int" >       31 </v>
  <v type="int" >       41 </v>
  <v type="int" >       36 </v>
  <v type="int" >        5 </v>
  <v type="int" >        7 </v>
  <v type="int" >       44 </v>
  <v type="int" >       50 </v>
  <v type="int" >       57 </v>
  <v type="int" >       45 </v>
  <v type="int" >       47 </v>
  <v type="int" >       59 </v>
  <v type="int" >       56 </v>
  <v type="int" >       54 </v>
  <v type="int" >       16 </v>
  <v type="int" >       18 </v>
  <v type="int" >       13 </v>
  <v type="int" >       25 </v>
  <v type="int" >       19 </v>
  <v type="int" >       20 </v>
  <v type="int" >       23 </v>
  <v type="int" >       22 </v>
  <v type="int" >       33 </v>
  <v type="int" >       28 </v>
  <v type="int" >       35 </v>
  <v type="int" >       40 </v>
  <v type="int" >       34 </v>
  <v type="int" >       37 </v>
  <v type="int" >       38 </v>
  <v type="int" >       39 </v>
  <v type="int" >        4 </v>
  <v type="int" >       49 </v>
  <v type="int" >       48 </v>
  <v type="int" >       58 </v>
  <v type="int" >       55 </v>
  <v type="int" >        6 </v>
  <v type="int" >       11 </v>
  <v type="int" >        8 </v>
  <v type="int" >       10 </v>
  <v type="int" >       17 </v>
  <v type="int" >       12 </v>
  <v type="int" >       26 </v>
  <v type="int" >       27 </v>
  <v type="int" >       32 </v>
  <v type="int" >       29 </v>
  <v type="int" >       43 </v>
  <v type="int" >       42 </v>
 </varray>
 <kpoints>
  <generation param="Gamma">
   <v type="int" name="divisions">       2        2        2 </v>
   <v name="usershift">      0.00000000       0.00000000       0.00000000 </v>
   <v name="genvec1">      0.50000000       0.00000000       0.00000000 </v>
   <v name="genvec2">      0.00000000       0.50000000       0.00000000 </v>
   <v name="genvec3">      0.00000000       0.00000000       0.50000000 </v>
   <v name="shift">      0.00000000       0.00000000       0.00000000 </v>
  </generation>
  <varray name="kpointlist" >
   <v>       0.00000000       0.00000000       0.00000000 </v>
   <v>       0.50000000       0.00000000       0.00000000 </v>
   <v>       0.00000000       0.50000000       0.00000000 </v>
   <v>       0.50000000       0.50000000       0.00000000 </v>
   <v>       0.00000000       0.00000000       0.50000000 </v>
   <v>       0.50000000       0.00000000       0.50000000 </v>
   <v>       0.00000000       0.50000000       0.50000000 </v>
   <v>       0.50000000       0.50000000       0.50000000 </v>
  </varray>
  <varray name="weights" >
   <v>       0.12500000 </v>
   <v>       0.12500000 </v>
   <v>       0.12500000 </v>
   <v>       0.12500000 </v>
   <v>       0.12500000 </v>
   <v>       0.12500000 </v>
   <v>       0.12500000 </v>
   <v>       0.12500000 </v>
  </varray>
  <varray name="tetrahedronlist"  type="int" >
   <v type="int" >        2        1        2        4        5 </v>
   <v type="int" >        2        1        3        4        5 </v>
   <v type="int" >        2        3        4        5        7 </v>
   <v type="int" >        2        2        4        5        6 </v>
   <v type="int" >        2        4        5        6        8 </v>
   <v type="int" >        2        4        5        7        8 </v>
   <v type="int" >        2        1        2        3        6 </v>
   <v type="int" >        2        2        3        4        6 </v>
   <v type="int" >        2        3        4        6        8 </v>
   <v type="int" >        2        1        3        5        6 </v>
   <v type="int" >        2        3        5        6        7 </v>
   <v type="int" >        2        3        6        7        8 </v>
   <v type="int" >        2        2        3        4        7 </v>
   <v type="int" >        2        1        2        3        7 </v>
   <v type="int" >        2        1        2        5        7 </v>
   <v type="int" >        2        2        4        7        8 </v>
   <v type="int" >        2        2        6        7        8 </v>
   <v type="int" >        2        2        5        6        7 </v>
   <v type="int" >        2        1        3        4        8 </v>
   <v type="int" >        2        1        2        4        8 </v>
   <v type="int" >        2        1        2        6        8 </v>
   <v type="int" >        2        1        3        7        8 </v>
   <v type="int" >        2        1        5        7        8 </v>
   <v type="int" >        2        1        5        6        8 </v>
  </varray>
  <i name="volumeweight">      0.02083333 </i>
 </kpoints>
 <parameters>
  <separator name="general" >
   <i type="string" name="SYSTEM">La2O2S</i>
   <i type="logical" name="LCOMPAT"> F  </i>
  </separator>
  <separator name="electronic" >
   <i type="string" name="PREC">normal</i>
   <i name="ENMAX">    600.00000000</i>
   <i name="ENAUG">    900.00000000</i>
   <i name="EDIFF">      0.00000100</i>
   <i type="int" name="IALGO">    38</i>
   <i type="int" name="IWAVPR">    11</i>
   <i type="int" name="NBANDS">   280</i>
   <i name="NELECT">    460.00000000</i>
   <i type="int" name="TURBO">     0</i>
   <i type="int" name="IRESTART">     0</i>
   <i type="int" name="NREBOOT">     0</i>
   <i type="int" name="NMIN">     0</i>
   <i name="EREF">      0.00000000</i>
   <separator name="electronic smearing" >
    <i type="int" name="ISMEAR">    -5</i>
    <i name="SIGMA">      0.20000000</i>
    <i name="KSPACING">      0.50000000</i>
    <i type="logical" name="KGAMMA"> T  </i>
   </separator>
   <separator name="electronic projectors" >
    <i type="logical" name="LREAL"> F  </i>
    <v name="ROPT">      0.00000000      0.00000000      0.00000000      0.00000000      0.00000000</v>
    <i type="int" name="LMAXPAW">  -100</i>
    <i type="int" name="LMAXMIX">     2</i>
    <i type="logical" name="NLSPLINE"> F  </i>
   </separator>
   <separator name="electronic startup" >
    <i type="int" name="ISTART">     0</i>
    <i type="int" name="ICHARG">     2</i>
    <i type="int" name="INIWAV">     1</i>
   </separator>
   <separator name="electronic spin" >
    <i type="int" name="ISPIN">     1</i>
    <i type="logical" name="LNONCOLLINEAR"> F  </i>
    <v name="MAGMOM">      1.00000000      1.00000000      1.00000000      1.00000000      1.00000000      1.00000000      1.00000000      1.00000000      1.00000000      1.00000000      1.00000000      1.00000000      1.00000000      1.00000000      1.00000000      1.00000000      1.00000000      1.00000000      1.00000000      1.00000000
      1.00000000      1.00000000      1.00000000      1.00000000      1.00000000      1.00000000      1.00000000      1.00000000      1.00000000      1.00000000      1.00000000      1.00000000      1.00000000      1.00000000      1.00000000      1.00000000      1.00000000      1.00000000      1.00000000      1.00000000
      1.00000000      1.00000000      1.00000000      1.00000000      1.00000000      1.00000000      1.00000000      1.00000000      1.00000000      1.00000000      1.00000000      1.00000000      1.00000000      1.00000000      1.00000000      1.00000000      1.00000000      1.00000000      1.00000000</v>
    <i name="NUPDOWN">     -1.00000000</i>
    <i type="logical" name="LSORBIT"> F  </i>
    <v name="SAXIS">      0.00000000      0.00000000      1.00000000</v>
    <i type="logical" name="LSPIRAL"> F  </i>
    <v name="QSPIRAL">      0.00000000      0.00000000      0.00000000</v>
    <i type="logical" name="LZEROZ"> F  </i>
   </separator>
   <separator name="electronic exchange-correlation" >
    <i type="logical" name="LASPH"> F  </i>
    <i type="logical" name="LMETAGGA"> F  </i>
   </separator>
   <separator name="electronic convergence" >
    <i type="int" name="NELM">    60</i>
    <i type="int" name="NELMDL">    -5</i>
    <i type="int" name="NELMIN">     4</i>
    <i name="ENINI">    600.00000000</i>
    <separator name="electronic convergence detail" >
     <i type="logical" name="LDIAG"> T  </i>
     <i type="logical" name="LSUBROT"> F  </i>
     <i name="WEIMIN">      0.00100000</i>
     <i name="EBREAK">      0.00000000</i>
     <i name="DEPER">      0.30000000</i>
     <i type="int" name="NRMM">     4</i>
     <i name="TIME">      0.40000000</i>
    </separator>
   </separator>
   <separator name="electronic mixer" >
    <i name="AMIX">      0.40000000</i>
    <i name="BMIX">      1.00000000</i>
    <i name="AMIN">      0.10000000</i>
    <i name="AMIX_MAG">      1.60000000</i>
    <i name="BMIX_MAG">      1.00000000</i>
    <separator name="electronic mixer details" >
     <i type="int" name="IMIX">     4</i>
     <i type="logical" name="MIXFIRST"> F  </i>
     <i type="int" name="MAXMIX">   -45</i>
     <i name="WC">    100.00000000</i>
     <i type="int" name="INIMIX">     1</i>
     <i type="int" name="MIXPRE">     1</i>
     <i type="int" name="MREMOVE">     5</i>
    </separator>
   </separator>
   <separator name="electronic dipolcorrection" >
    <i type="logical" name="LDIPOL"> F  </i>
    <i type="logical" name="LMONO"> F  </i>
    <i type="int" name="IDIPOL">     0</i>
    <i name="EPSILON">      1.00000000</i>
    <v name="DIPOL">   -100.00000000   -100.00000000   -100.00000000</v>
    <i name="EFIELD">      0.00000000</i>
   </separator>
  </separator>
  <separator name="grids" >
   <i type="int" name="NGX">    70</i>
   <i type="int" name="NGY">    60</i>
   <i type="int" name="NGZ">    70</i>
   <i type="int" name="NGXF">   140</i>
   <i type="int" name="NGYF">   120</i>
   <i type="int" name="NGZF">   140</i>
   <i type="logical" name="ADDGRID"> F  </i>
  </separator>
  <separator name="ionic" >
   <i type="int" name="NSW">     1</i>
   <i type="int" name="IBRION">     2</i>
   <i type="int" name="MDALGO">     0</i>
   <i type="int" name="ISIF">     2</i>
   <i name="PSTRESS">      0.00000000</i>
   <i name="EDIFFG">     -0.01000000</i>
   <i type="int" name="NFREE">    10</i>
   <i name="POTIM">      0.50000000</i>
   <i name="SMASS">     -3.00000000</i>
   <i name="SCALEE">      1.00000000</i>
  </separator>
  <separator name="ionic md" >
   <i name="TEBEG">      0.00010000</i>
   <i name="TEEND">      0.00010000</i>
   <i type="int" name="NBLOCK">     1</i>
   <i type="int" name="KBLOCK">     1</i>
   <i type="int" name="NPACO">   256</i>
   <i name="APACO">     16.00000000</i>
  </separator>
  <separator name="symmetry" >
   <i type="int" name="ISYM">     2</i>
   <i name="SYMPREC">      0.00001000</i>
  </separator>
  <separator name="dos" >
   <i type="int" name="LORBIT">     0</i>
   <v name="RWIGS">     -1.00000000     -1.00000000     -1.00000000     -1.00000000     -1.00000000</v>
   <i type="int" name="NEDOS">   301</i>
   <i name="EMIN">     10.00000000</i>
   <i name="EMAX">    -10.00000000</i>
   <i name="EFERMI">      0.00000000</i>
  </separator>
  <separator name="writing" >
   <i type="int" name="NWRITE">     2</i>
   <i type="logical" name="LWAVE"> F  </i>
   <i type="logical" name="LDOWNSAMPLE"> F  </i>
   <i type="logical" name="LCHARG"> F  </i>
   <i type="logical" name="LPARD"> F  </i>
   <i type="logical" name="LVTOT"> F  </i>
   <i type="logical" name="LVHAR"> F  </i>
   <i type="logical" name="LELF"> F  </i>
   <i type="logical" name="LOPTICS"> F  </i>
   <v name="STM">      0.00000000      0.00000000      0.00000000      0.00000000      0.00000000      0.00000000      0.00000000</v>
  </separator>
  <separator name="performance" >
   <i type="int" name="NPAR">    28</i>
   <i type="int" name="NSIM">     4</i>
   <i type="int" name="NBLK">    -1</i>
   <i type="logical" name="LPLANE"> T  </i>
   <i type="logical" name="LSCALAPACK"> T  </i>
   <i type="logical" name="LSCAAWARE"> F  </i>
   <i type="logical" name="LSCALU"> F  </i>
   <i type="logical" name="LASYNC"> F  </i>
   <i type="logical" name="LORBITALREAL"> F  </i>
  </separator>
  <separator name="miscellaneous" >
   <i type="int" name="IDIOT">     3</i>
   <i type="int" name="ISPECIAL">     0</i>
   <i type="logical" name="LMUSIC"> F  </i>
   <v name="POMASS">      7.01000000     24.30500000    208.98000000     32.06600000     16.00000000</v>
   <v name="DARWINR">      0.00000000      0.00000000      0.00000000      0.00000000      0.00000000</v>
   <v name="DARWINV">      1.00000000      1.00000000      1.00000000      1.00000000      1.00000000</v>
   <i type="logical" name="LCORR"> T  </i>
  </separator>
  <i type="logical" name="GGA_COMPAT"> T  </i>
  <i type="logical" name="LBERRY"> F  </i>
  <i type="int" name="ICORELEVEL">     0</i>
  <i type="logical" name="LDAU"> F  </i>
  <i type="int" name="I_CONSTRAINED_M">     0</i>
  <separator name="electronic exchange-correlation" >
   <i type="string" name="GGA">--</i>
   <i type="int" name="VOSKOWN">     0</i>
   <i type="logical" name="LHFCALC"> F  </i>
   <i type="string" name="PRECFOCK"></i>
   <i type="logical" name="LSYMGRAD"> F  </i>
   <i type="logical" name="LHFONE"> F  </i>
   <i type="logical" name="LRHFCALC"> F  </i>
   <i type="logical" name="LTHOMAS"> F  </i>
   <i type="logical" name="LMODELHF"> F  </i>
   <i name="ENCUT4O">     -1.00000000</i>
   <i type="int" name="EXXOEP">     0</i>
   <i type="int" name="FOURORBIT">     0</i>
   <i name="AEXX">      0.00000000</i>
   <i name="HFALPHA">      0.00000000</i>
   <i name="MCALPHA">      0.00000000</i>
   <i name="ALDAX">      1.00000000</i>
   <i name="AGGAX">      1.00000000</i>
   <i name="ALDAC">      1.00000000</i>
   <i name="AGGAC">      1.00000000</i>
   <i type="int" name="NKREDX">     1</i>
   <i type="int" name="NKREDY">     1</i>
   <i type="int" name="NKREDZ">     1</i>
   <i type="logical" name="SHIFTRED"> F  </i>
   <i type="logical" name="ODDONLY"> F  </i>
   <i type="logical" name="EVENONLY"> F  </i>
   <i type="int" name="LMAXFOCK">     0</i>
   <i type="int" name="NMAXFOCKAE">     0</i>
   <i type="logical" name="LFOCKAEDFT"> F  </i>
   <i name="HFSCREEN">      0.00000000</i>
   <i name="HFSCREENC">      0.00000000</i>
   <i type="int" name="NBANDSGWLOW">     0</i>
  </separator>
  <separator name="vdW DFT" >
   <i type="logical" name="LUSE_VDW"> F  </i>
   <i name="Zab_VDW">     -0.84910000</i>
   <i name="PARAM1">      0.12340000</i>
   <i name="PARAM2">      1.00000000</i>
   <i name="PARAM3">      0.00000000</i>
  </separator>
  <separator name="model GW" >
   <i type="int" name="MODEL_GW">     0</i>
   <i name="MODEL_EPS0">     12.17134107</i>
   <i name="MODEL_ALPHA">      1.00000000</i>
  </separator>
  <separator name="linear response parameters" >
   <i type="logical" name="LEPSILON"> F  </i>
   <i type="logical" name="LRPA"> F  </i>
   <i type="logical" name="LNABLA"> F  </i>
   <i type="logical" name="LVEL"> F  </i>
   <i type="int" name="KINTER">     0</i>
   <i name="CSHIFT">      0.10000000</i>
   <i name="OMEGAMAX">     -1.00000000</i>
   <i name="DEG_THRESHOLD">      0.00200000</i>
   <i name="RTIME">     -0.10000000</i>
   <i name="WPLASMAI">      0.00000000</i>
   <v name="DFIELD">      0.00000000      0.00000000      0.00000000</v>
   <v name="WPLASMA">      0.00000000      0.00000000      0.00000000      0.00000000      0.00000000      0.00000000      0.00000000      0.00000000      0.00000000</v>
  </separator>
  <separator name="orbital magnetization" >
   <i type="logical" name="NUCIND"> F  </i>
   <v name="MAGPOS">      0.00000000      0.00000000      0.00000000</v>
   <i type="logical" name="LNICSALL"> T  </i>
   <i type="logical" name="ORBITALMAG"> F  </i>
   <i type="logical" name="LMAGBLOCH"> F  </i>
   <i type="logical" name="LCHIMAG"> F  </i>
   <i type="logical" name="LGAUGE"> T  </i>
   <i type="int" name="MAGATOM">     0</i>
   <v name="MAGDIPOL">      0.00000000      0.00000000      0.00000000</v>
   <v name="AVECCONST">      0.00000000      0.00000000      0.00000000</v>
  </separator>
  <separator name="response functions" >
   <i type="logical" name="LADDER"> F  </i>
   <i type="logical" name="LRPAFORCE"> F  </i>
   <i type="logical" name="LFXC"> F  </i>
   <i type="logical" name="LHARTREE"> T  </i>
   <i type="int" name="IBSE">     0</i>
   <v type="int" name="KPOINT">    -1     0     0     0</v>
   <i type="logical" name="LTCTE"> F  </i>
   <i type="logical" name="LTETE"> F  </i>
   <i type="logical" name="LTRIPLET"> F  </i>
   <i type="logical" name="LFXCEPS"> F  </i>
   <i type="logical" name="LFXHEG"> F  </i>
   <i type="int" name="NATURALO">     2</i>
   <i type="logical" name="L2ORDER"> F  </i>
   <i type="logical" name="LMP2LT"> F  </i>
   <i type="logical" name="LUSEW"> F  </i>
   <i name="ENCUTGW">     -2.00000000</i>
   <i name="ENCUTGWSOFT">     -2.00000000</i>
   <i name="ENCUTLF">     -1.00000000</i>
   <i type="int" name="LMAXMP2">    -1</i>
   <i name="SCISSOR">      0.00000000</i>
   <i type="int" name="NOMEGA">     0</i>
   <i type="int" name="NOMEGAR">     0</i>
   <i type="int" name="NBANDSGW">    -1</i>
   <i type="int" name="NBANDSO">    -1</i>
   <i type="int" name="NBANDSV">    -1</i>
   <i type="int" name="NELM">     1</i>
   <i type="int" name="NELMHF">     1</i>
   <i type="int" name="DIM">     3</i>
   <i type="int" name="ANTIRES">     0</i>
   <i name="OMEGAMAX">    -30.00000000</i>
   <i name="OMEGAMIN">    -30.00000000</i>
   <i name="OMEGATL">   -200.00000000</i>
   <i type="int" name="OMEGAGRID">   140</i>
   <i name="CSHIFT">     -0.10000000</i>
   <i type="logical" name="SELFENERGY"> F  </i>
   <i type="logical" name="LSPECTRAL"> F  </i>
   <i type="logical" name="LSPECTRALGW"> F  </i>
   <i type="logical" name="LSINGLES"> F  </i>
   <i type="logical" name="LFERMIGW"> F  </i>
   <i type="logical" name="ODDONLYGW"> F  </i>
   <i type="logical" name="EVENONLYGW"> F  </i>
   <i type="int" name="NKREDLFX">     1</i>
   <i type="int" name="NKREDLFY">     1</i>
   <i type="int" name="NKREDLFZ">     1</i>
   <i type="int" name="MAXMEM">  2800</i>
   <i type="int" name="TELESCOPE">     0</i>
   <i type="int" name="TAUPAR">     1</i>
   <i type="int" name="OMEGAPAR">    -1</i>
   <i name="LAMBDA">      1.00000000</i>
  </separator>
  <separator name="External order field" >
   <i name="OFIELD_KAPPA">      0.00000000</i>
   <v name="OFIELD_K">      0.00000000      0.00000000      0.00000000</v>
   <i name="OFIELD_Q6_NEAR">      0.00000000</i>
   <i name="OFIELD_Q6_FAR">      0.00000000</i>
   <i name="OFIELD_A">      0.00000000</i>
  </separator>
 </parameters>
 <atominfo>
  <atoms>      59 </atoms>
  <types>       5 </types>
  <array name="atoms" >
   <dimension dim="1">ion</dimension>
   <field type="string">element</field>
   <field type="int">atomtype</field>
   <set>
    <rc><c>Li</c><c>   1</c></rc>
    <rc><c>Li</c><c>   1</c></rc>
    <rc><c>Li</c><c>   1</c></rc>
    <rc><c>Li</c><c>   1</c></rc>
    <rc><c>Li</c><c>   1</c></rc>
    <rc><c>Li</c><c>   1</c></rc>
    <rc><c>Mg</c><c>   2</c></rc>
    <rc><c>Mg</c><c>   2</c></rc>
    <rc><c>Mg</c><c>   2</c></rc>
    <rc><c>Mg</c><c>   2</c></rc>
    <rc><c>Mg</c><c>   2</c></rc>
    <rc><c>Bi</c><c>   3</c></rc>
    <rc><c>Bi</c><c>   3</c></rc>
    <rc><c>Bi</c><c>   3</c></rc>
    <rc><c>Bi</c><c>   3</c></rc>
    <rc><c>Bi</c><c>   3</c></rc>
    <rc><c>Bi</c><c>   3</c></rc>
    <rc><c>Bi</c><c>   3</c></rc>
    <rc><c>Bi</c><c>   3</c></rc>
    <rc><c>Bi</c><c>   3</c></rc>
    <rc><c>Bi</c><c>   3</c></rc>
    <rc><c>Bi</c><c>   3</c></rc>
    <rc><c>Bi</c><c>   3</c></rc>
    <rc><c>Bi</c><c>   3</c></rc>
    <rc><c>Bi</c><c>   3</c></rc>
    <rc><c>Bi</c><c>   3</c></rc>
    <rc><c>Bi</c><c>   3</c></rc>
    <rc><c>S </c><c>   4</c></rc>
    <rc><c>S </c><c>   4</c></rc>
    <rc><c>S </c><c>   4</c></rc>
    <rc><c>S </c><c>   4</c></rc>
    <rc><c>S </c><c>   4</c></rc>
    <rc><c>S </c><c>   4</c></rc>
    <rc><c>S </c><c>   4</c></rc>
    <rc><c>S </c><c>   4</c></rc>
    <rc><c>S </c><c>   4</c></rc>
    <rc><c>S </c><c>   4</c></rc>
    <rc><c>S </c><c>   4</c></rc>
    <rc><c>S </c><c>   4</c></rc>
    <rc><c>S </c><c>   4</c></rc>
    <rc><c>S </c><c>   4</c></rc>
    <rc><c>S </c><c>   4</c></rc>
    <rc><c>S </c><c>   4</c></rc>
    <rc><c>O </c><c>   5</c></rc>
    <rc><c>O </c><c>   5</c></rc>
    <rc><c>O </c><c>   5</c></rc>
    <rc><c>O </c><c>   5</c></rc>
    <rc><c>O </c><c>   5</c></rc>
    <rc><c>O </c><c>   5</c></rc>
    <rc><c>O </c><c>   5</c></rc>
    <rc><c>O </c><c>   5</c></rc>
    <rc><c>O </c><c>   5</c></rc>
    <rc><c>O </c><c>   5</c></rc>
    <rc><c>O </c><c>   5</c></rc>
    <rc><c>O </c><c>   5</c></rc>
    <rc><c>O </c><c>   5</c></rc>
    <rc><c>O </c><c>   5</c></rc>
    <rc><c>O </c><c>   5</c></rc>
    <rc><c>O </c><c>   5</c></rc>
   </set>
  </array>
  <array name="atomtypes" >
   <dimension dim="1">type</dimension>
   <field type="int">atomspertype</field>
   <field type="string">element</field>
   <field>mass</field>
   <field>valence</field>
   <field type="string">pseudopotential</field>
   <set>
    <rc><c>   6</c><c>Li</c><c>      7.01000000</c><c>      3.00000000</c><c>  PAW_PBE Li_sv 10Sep2004               </c></rc>
    <rc><c>   5</c><c>Mg</c><c>     24.30500000</c><c>      2.00000000</c><c>  PAW_PBE Mg 13Apr2007                  </c></rc>
    <rc><c>  16</c><c>Bi</c><c>    208.98000000</c><c>     15.00000000</c><c>  PAW_PBE Bi_d 06Sep2000                </c></rc>
    <rc><c>  16</c><c>S </c><c>     32.06600000</c><c>      6.00000000</c><c>  PAW_PBE S 06Sep2000                   </c></rc>
    <rc><c>  16</c><c>O </c><c>     16.00000000</c><c>      6.00000000</c><c>  PAW_PBE O 08Apr2002                   </c></rc>
   </set>
  </array>
 </atominfo>
 <structure name="initialpos" >
  <crystal>
   <varray name="basis" >
    <v>      11.17850000       0.00000000       0.00000000 </v>
    <v>       0.00000000       9.57460000       0.00000000 </v>
    <v>       0.00000000       0.00000000      11.18240000 </v>
   </varray>
   <i name="volume">   1196.84853820 </i>
   <varray name="rec_basis" >
    <v>       0.08945744       0.00000000       0.00000000 </v>
    <v>       0.00000000       0.10444301       0.00000000 </v>
    <v>       0.00000000       0.00000000       0.08942624 </v>
   </varray>
  </crystal>
  <varray name="positions" >
   <v>       0.37539000       0.00017000       0.43687000 </v>
   <v>       0.37461000       0.00017000       0.18687000 </v>
   <v>       0.62539000       0.99984000       0.43687000 </v>
   <v>       0.87539000       0.00017000       0.43687000 </v>
   <v>       0.62461000       0.99984000       0.18687000 </v>
   <v>       0.87461000       0.00017000       0.18687000 </v>
   <v>       0.12461000       0.99984000       0.18687000 </v>
   <v>       0.12539000       0.99984000       0.93687000 </v>
   <v>       0.37461000       0.00017000       0.68687000 </v>
   <v>       0.62539000       0.99984000       0.93687000 </v>
   <v>       0.87461000       0.00017000       0.68687000 </v>
   <v>       0.00013000       0.29519000       0.06281000 </v>
   <v>       0.25013000       0.70481000       0.06281000 </v>
   <v>       0.24987000       0.29519000       0.31282000 </v>
   <v>       0.49987000       0.70481000       0.31282000 </v>
   <v>       0.50013000       0.29519000       0.06281000 </v>
   <v>       0.75013000       0.70481000       0.06281000 </v>
   <v>       0.74987000       0.29519000       0.31282000 </v>
   <v>       0.99987000       0.70481000       0.31282000 </v>
   <v>       0.00013000       0.29519000       0.56281000 </v>
   <v>       0.25013000       0.70481000       0.56281000 </v>
   <v>       0.24987000       0.29519000       0.81282000 </v>
   <v>       0.49987000       0.70481000       0.81282000 </v>
   <v>       0.50013000       0.29519000       0.56281000 </v>
   <v>       0.75013000       0.70481000       0.56281000 </v>
   <v>       0.74987000       0.29519000       0.81282000 </v>
   <v>       0.99987000       0.70481000       0.81282000 </v>
   <v>       0.25005000       0.32677000       0.06286000 </v>
   <v>       0.00005000       0.67323000       0.06286000 </v>
   <v>       0.49995000       0.32677000       0.31286000 </v>
   <v>       0.24995000       0.67323000       0.31286000 </v>
   <v>       0.75005000       0.32677000       0.06286000 </v>
   <v>       0.50005000       0.67323000       0.06286000 </v>
   <v>       0.99995000       0.32677000       0.31286000 </v>
   <v>       0.74995000       0.67323000       0.31286000 </v>
   <v>       0.25005000       0.32677000       0.56286000 </v>
   <v>       0.00005000       0.67323000       0.56286000 </v>
   <v>       0.49995000       0.32677000       0.81286000 </v>
   <v>       0.24995000       0.67323000       0.81286000 </v>
   <v>       0.75005000       0.32677000       0.56286000 </v>
   <v>       0.50005000       0.67323000       0.56286000 </v>
   <v>       0.99995000       0.32677000       0.81286000 </v>
   <v>       0.74995000       0.67323000       0.81286000 </v>
   <v>       0.49987000       0.07798000       0.06246000 </v>
   <v>       0.24987000       0.92202000       0.06246000 </v>
   <v>       0.25013000       0.07798000       0.31246000 </v>
   <v>       0.00013000       0.92202000       0.31246000 </v>
   <v>       0.99987000       0.07798000       0.06246000 </v>
   <v>       0.74987000       0.92202000       0.06246000 </v>
   <v>       0.75013000       0.07798000       0.31246000 </v>
   <v>       0.50013000       0.92202000       0.31246000 </v>
   <v>       0.49987000       0.07798000       0.56246000 </v>
   <v>       0.24987000       0.92202000       0.56246000 </v>
   <v>       0.25013000       0.07798000       0.81246000 </v>
   <v>       0.00013000       0.92202000       0.81246000 </v>
   <v>       0.99987000       0.07798000       0.56246000 </v>
   <v>       0.74987000       0.92202000       0.56246000 </v>
   <v>       0.75013000       0.07798000       0.81246000 </v>
   <v>       0.50013000       0.92202000       0.81246000 </v>
  </varray>
 </structure>
 <calculation>
  <scstep>
   <time name="dav">   60.17   60.71</time>
   <time name="total">   60.25   60.80</time>
   <energy>
    <i name="alphaZ">   1060.66890660 </i>
    <i name="ewald"> -30391.57281386 </i>
    <i name="hartreedc"> -12726.21035029 </i>
    <i name="XCdc">   1247.19532833 </i>
    <i name="pawpsdc">  36635.26894311 </i>
    <i name="pawaedc"> -35972.74895369 </i>
    <i name="eentropy">      0.00000000 </i>
    <i name="bandstr">   1870.10847559 </i>
    <i name="atom">  44026.03258983 </i>
    <i name="e_fr_energy">   5748.74212561 </i>
    <i name="e_wo_entrp">   5748.74212561 </i>
    <i name="e_0_energy">   5748.74212561 </i>
   </energy>
  </scstep>
  <scstep>
   <time name="dav">   61.80   61.84</time>
   <time name="total">   61.81   61.85</time>
   <energy>
    <i name="e_fr_energy">    750.57263687 </i>
    <i name="e_wo_entrp">    750.57263687 </i>
    <i name="e_0_energy">    750.57263687 </i>
   </energy>
  </scstep>
  <scstep>
   <time name="dav">   71.62   71.73</time>
   <time name="total">   71.62   71.73</time>
   <energy>
    <i name="e_fr_energy">   -247.68479913 </i>
    <i name="e_wo_entrp">   -247.68479913 </i>
    <i name="e_0_energy">   -247.68479913 </i>
   </energy>
  </scstep>
  <scstep>
   <time name="dav">   72.65   72.78</time>
   <time name="total">   72.65   72.78</time>
   <energy>
    <i name="e_fr_energy">   -336.80014280 </i>
    <i name="e_wo_entrp">   -336.80014280 </i>
    <i name="e_0_energy">   -336.80014280 </i>
   </energy>
  </scstep>
  <scstep>
   <time name="dav">   96.43   96.51</time>
   <time name="total">   97.14   97.23</time>
   <energy>
    <i name="e_fr_energy">   -343.92662281 </i>
    <i name="e_wo_entrp">   -343.92662281 </i>
    <i name="e_0_energy">   -343.92662281 </i>
   </energy>
  </scstep>
  <scstep>
   <time name="dav">   86.06   86.89</time>
   <time name="total">   86.85   87.68</time>
   <energy>
    <i name="e_fr_energy">   -288.50053901 </i>
    <i name="e_wo_entrp">   -288.50053901 </i>
    <i name="e_0_energy">   -288.50053901 </i>
   </energy>
  </scstep>
  <scstep>
   <time name="dav">   65.57   65.86</time>
   <time name="total">   66.36   66.65</time>
   <energy>
    <i name="e_fr_energy">   -290.90460986 </i>
    <i name="e_wo_entrp">   -290.90460986 </i>
    <i name="e_0_energy">   -290.90460986 </i>
   </energy>
  </scstep>
  <scstep>
   <time name="dav">   76.55   76.84</time>
   <time name="total">   77.34   77.64</time>
   <energy>
    <i name="e_fr_energy">   -289.90671501 </i>
    <i name="e_wo_entrp">   -289.90671501 </i>
    <i name="e_0_energy">   -289.90671501 </i>
   </energy>
  </scstep>
  <scstep>
   <time name="dav">   76.62   77.10</time>
   <time name="total">   77.40   77.89</time>
   <energy>
    <i name="e_fr_energy">   -289.39330890 </i>
    <i name="e_wo_entrp">   -289.39330890 </i>
    <i name="e_0_energy">   -289.39330890 </i>
   </energy>
  </scstep>
  <scstep>
   <time name="dav">   73.39   73.74</time>
   <time name="total">   74.17   74.54</time>
   <energy>
    <i name="e_fr_energy">   -289.40928115 </i>
    <i name="e_wo_entrp">   -289.40928115 </i>
    <i name="e_0_energy">   -289.40928115 </i>
   </energy>
  </scstep>
  <scstep>
   <time name="dav">   81.27   81.70</time>
   <time name="total">   82.06   82.49</time>
   <energy>
    <i name="e_fr_energy">   -289.41693454 </i>
    <i name="e_wo_entrp">   -289.41693454 </i>
    <i name="e_0_energy">   -289.41693454 </i>
   </energy>
  </scstep>
  <scstep>
   <time name="dav">   76.46   76.92</time>
   <time name="total">   77.25   77.72</time>
   <energy>
    <i name="e_fr_energy">   -289.41986074 </i>
    <i name="e_wo_entrp">   -289.41986074 </i>
    <i name="e_0_energy">   -289.41986074 </i>
   </energy>
  </scstep>
  <scstep>
   <time name="dav">   76.13   76.53</time>
   <time name="total">   76.92   77.32</time>
   <energy>
    <i name="e_fr_energy">   -289.42102762 </i>
    <i name="e_wo_entrp">   -289.42102762 </i>
    <i name="e_0_energy">   -289.42102762 </i>
   </energy>
  </scstep>
  <scstep>
   <time name="dav">   80.21   80.54</time>
   <time name="total">   81.00   81.34</time>
   <energy>
    <i name="e_fr_energy">   -289.42117563 </i>
    <i name="e_wo_entrp">   -289.42117563 </i>
    <i name="e_0_energy">   -289.42117563 </i>
   </energy>
  </scstep>
  <scstep>
   <time name="dav">   77.49   77.81</time>
   <time name="total">   78.28   78.60</time>
   <energy>
    <i name="e_fr_energy">   -289.42121065 </i>
    <i name="e_wo_entrp">   -289.42121065 </i>
    <i name="e_0_energy">   -289.42121065 </i>
   </energy>
  </scstep>
  <scstep>
   <time name="dav">   63.36   63.55</time>
   <time name="total">   64.15   64.35</time>
   <energy>
    <i name="e_fr_energy">   -289.42122851 </i>
    <i name="e_wo_entrp">   -289.42122851 </i>
    <i name="e_0_energy">   -289.42122851 </i>
   </energy>
  </scstep>
  <scstep>
   <time name="dav">   68.91   69.17</time>
   <time name="total">   69.70   69.96</time>
   <energy>
    <i name="e_fr_energy">   -289.42123135 </i>
    <i name="e_wo_entrp">   -289.42123135 </i>
    <i name="e_0_energy">   -289.42123135 </i>
   </energy>
  </scstep>
  <scstep>
   <time name="dav">   58.48   58.65</time>
   <time name="total">   58.55   58.72</time>
   <energy>
    <i name="alphaZ">   1060.66890660 </i>
    <i name="ewald"> -30391.57281386 </i>
    <i name="hartreedc"> -12966.32791799 </i>
    <i name="XCdc">   1271.97202938 </i>
    <i name="pawpsdc">  43656.57237119 </i>
    <i name="pawaedc"> -42967.17082434 </i>
    <i name="eentropy">      0.00000000 </i>
    <i name="bandstr">  -3979.59557259 </i>
    <i name="atom">  44026.03258983 </i>
    <i name="e_fr_energy">   -289.42123178 </i>
    <i name="e_wo_entrp">   -289.42123178 </i>
    <i name="e_0_energy">   -289.42123178 </i>
   </energy>
  </scstep>
  <structure>
   <crystal>
    <varray name="basis" >
     <v>      11.17850000       0.00000000       0.00000000 </v>
     <v>       0.00000000       9.57460000       0.00000000 </v>
     <v>       0.00000000       0.00000000      11.18240000 </v>
    </varray>
    <i name="volume">   1196.84853820 </i>
    <varray name="rec_basis" >
     <v>       0.08945744       0.00000000       0.00000000 </v>
     <v>       0.00000000       0.10444301       0.00000000 </v>
     <v>       0.00000000       0.00000000       0.08942624 </v>
    </varray>
   </crystal>
   <varray name="positions" >
    <v>       0.37539000       0.00017000       0.43687000 </v>
    <v>       0.37461000       0.00017000       0.18687000 </v>
    <v>       0.62539000       0.99984000       0.43687000 </v>
    <v>       0.87539000       0.00017000       0.43687000 </v>
    <v>       0.62461000       0.99984000       0.18687000 </v>
    <v>       0.87461000       0.00017000       0.18687000 </v>
    <v>       0.12461000       0.99984000       0.18687000 </v>
    <v>       0.12539000       0.99984000       0.93687000 </v>
    <v>       0.37461000       0.00017000       0.68687000 </v>
    <v>       0.62539000       0.99984000       0.93687000 </v>
    <v>       0.87461000       0.00017000       0.68687000 </v>
    <v>       0.00013000       0.29519000       0.06281000 </v>
    <v>       0.25013000       0.70481000       0.06281000 </v>
    <v>       0.24987000       0.29519000       0.31282000 </v>
    <v>       0.49987000       0.70481000       0.31282000 </v>
    <v>       0.50013000       0.29519000       0.06281000 </v>
    <v>       0.75013000       0.70481000       0.06281000 </v>
    <v>       0.74987000       0.29519000       0.31282000 </v>
    <v>       0.99987000       0.70481000       0.31282000 </v>
    <v>       0.00013000       0.29519000       0.56281000 </v>
    <v>       0.25013000       0.70481000       0.56281000 </v>
    <v>       0.24987000       0.29519000       0.81282000 </v>
    <v>       0.49987000       0.70481000       0.81282000 </v>
    <v>       0.50013000       0.29519000       0.56281000 </v>
    <v>       0.75013000       0.70481000       0.56281000 </v>
    <v>       0.74987000       0.29519000       0.81282000 </v>
    <v>       0.99987000       0.70481000       0.81282000 </v>
    <v>       0.25005000       0.32677000       0.06286000 </v>
    <v>       0.00005000       0.67323000       0.06286000 </v>
    <v>       0.49995000       0.32677000       0.31286000 </v>
    <v>       0.24995000       0.67323000       0.31286000 </v>
    <v>       0.75005000       0.32677000       0.06286000 </v>
    <v>       0.50005000       0.67323000       0.06286000 </v>
    <v>       0.99995000       0.32677000       0.31286000 </v>
    <v>       0.74995000       0.67323000       0.31286000 </v>
    <v>       0.25005000       0.32677000       0.56286000 </v>
    <v>       0.00005000       0.67323000       0.56286000 </v>
    <v>       0.49995000       0.32677000       0.81286000 </v>
    <v>       0.24995000       0.67323000       0.81286000 </v>
    <v>       0.75005000       0.32677000       0.56286000 </v>
    <v>       0.50005000       0.67323000       0.56286000 </v>
    <v>       0.99995000       0.32677000       0.81286000 </v>
    <v>       0.74995000       0.67323000       0.81286000 </v>
    <v>       0.49987000       0.07798000       0.06246000 </v>
    <v>       0.24987000       0.92202000       0.06246000 </v>
    <v>       0.25013000       0.07798000       0.31246000 </v>
    <v>       0.00013000       0.92202000       0.31246000 </v>
    <v>       0.99987000       0.07798000       0.06246000 </v>
    <v>       0.74987000       0.92202000       0.06246000 </v>
    <v>       0.75013000       0.07798000       0.31246000 </v>
    <v>       0.50013000       0.92202000       0.31246000 </v>
    <v>       0.49987000       0.07798000       0.56246000 </v>
    <v>       0.24987000       0.92202000       0.56246000 </v>
    <v>       0.25013000       0.07798000       0.81246000 </v>
    <v>       0.00013000       0.92202000       0.81246000 </v>
    <v>       0.99987000       0.07798000       0.56246000 </v>
    <v>       0.74987000       0.92202000       0.56246000 </v>
    <v>       0.75013000       0.07798000       0.81246000 </v>
    <v>       0.50013000       0.92202000       0.81246000 </v>
   </varray>
  </structure>
  <varray name="forces" >
   <v>      -0.41221914      -0.06359151      -0.02582332 </v>
   <v>       0.33705692       0.06712426      -0.12380126 </v>
   <v>      -0.00865000       0.00013383       0.38471818 </v>
   <v>       0.40580982       0.06118824      -0.02676996 </v>
   <v>       0.00291355       0.00099836       0.18235625 </v>
   <v>      -0.32280878      -0.06605120      -0.12800610 </v>
   <v>       0.01875519       0.00540096       1.64536668 </v>
   <v>      -0.02197280       0.00519565      -1.67779304 </v>
   <v>      -0.17044658      -0.12076563       0.37392903 </v>
   <v>      -0.02567240       0.00510724      -0.67429170 </v>
   <v>       0.21598420       0.10647070       0.37714826 </v>
   <v>      -0.36340180       1.06944506      -0.10880098 </v>
   <v>       0.35625911      -1.07901410      -0.10634199 </v>
   <v>      -0.01981773      -0.00672347       0.43470265 </v>
   <v>       0.03030670      -0.03178984       0.14008033 </v>
   <v>      -0.12305804       0.01214597      -0.00580494 </v>
   <v>       0.11028194      -0.02478369      -0.00491907 </v>
   <v>      -0.01993792       0.03231477       0.13833336 </v>
   <v>       0.03308686      -0.00376629       0.43690197 </v>
   <v>       0.31834144      -0.98635549      -0.08724838 </v>
   <v>      -0.33124428       0.98851141      -0.08940916 </v>
   <v>       0.01370483      -0.06091584      -0.25979029 </v>
   <v>       0.00493338       0.11217524      -0.15966192 </v>
   <v>       0.15662344      -0.01962693       0.00490296 </v>
   <v>      -0.17074128       0.01399310       0.00364624 </v>
   <v>       0.00652212      -0.09367991      -0.15839600 </v>
   <v>      -0.00008101       0.07900519      -0.26065630 </v>
   <v>      -0.19436934       0.05874395       0.02666099 </v>
   <v>       0.19299441      -0.05801456       0.03066167 </v>
   <v>       0.00511324       0.19697043      -0.07671054 </v>
   <v>      -0.03102919      -0.12732683      -0.31898302 </v>
   <v>       0.01956818       0.12131136      -0.00232217 </v>
   <v>      -0.01971197      -0.12179551       0.00002651 </v>
   <v>       0.03105693       0.12746147      -0.31682229 </v>
   <v>      -0.00229580      -0.19603587      -0.07815995 </v>
   <v>       0.16339629       0.15271486       0.03115610 </v>
   <v>      -0.16599882      -0.15411821       0.02643737 </v>
   <v>       0.00190036       0.09418341       0.07869783 </v>
   <v>      -0.01667754      -0.09974883       0.26163862 </v>
   <v>      -0.04780766       0.19851432       0.00119557 </v>
   <v>       0.04798517      -0.20080499      -0.00230715 </v>
   <v>       0.01701183       0.10053194       0.25876022 </v>
   <v>      -0.00035461      -0.09293535       0.08095953 </v>
   <v>       1.05655196       0.00590165       0.14433412 </v>
   <v>      -1.60082268       0.86132317       0.57044995 </v>
   <v>       0.09796792       0.00020186      -1.33003538 </v>
   <v>      -0.12465546       0.00005853      -1.32076886 </v>
   <v>       1.61312534      -0.86145649       0.56030648 </v>
   <v>      -1.03646788      -0.00534538       0.15258413 </v>
   <v>      -0.00538387      -0.02126046      -0.09088910 </v>
   <v>      -0.00391685       0.02025566      -0.09074613 </v>
   <v>      -0.99950990       0.12948066      -0.15669387 </v>
   <v>       1.65929689      -0.77813891       0.44323886 </v>
   <v>      -0.05736489       0.27781245       0.22649149 </v>
   <v>       0.04109621      -0.28006623       0.22015213 </v>
   <v>      -1.65490853       0.77769205       0.44506550 </v>
   <v>       1.00911268      -0.12517877      -0.15875130 </v>
   <v>      -0.02878169       0.29244548       0.08274424 </v>
   <v>       0.01335155      -0.29552292       0.07705691 </v>
  </varray>
  <varray name="stress" >
   <v>     -12.24323229      -0.29337680      -0.08387007 </v>
   <v>      -0.29337663     -13.61864220      -0.01706593 </v>
   <v>      -0.08387008      -0.01706591      -5.25956740 </v>
  </varray>
  <energy>
   <i name="e_fr_energy">   -302.00506136 </i>
   <i name="e_wo_entrp">   -302.00506136 </i>
   <i name="e_0_energy">      0.00000000 </i>
  </energy>
  <time name="totalsc"> 1442.86 1449.05</time>
  <eigenvalues>
   <array>
    <dimension dim="1">band</dimension>
    <dimension dim="2">kpoint</dimension>
    <dimension dim="3">spin</dimension>
    <field>eigene</field>
    <field>occ</field>
    <set>
     <set comment="spin 1">
      <set comment="kpoint 1">
       <r>  -40.0647    1.0000 </r>
       <r>  -40.0623    1.0000 </r>
       <r>  -39.9231    1.0000 </r>
       <r>  -39.7538    1.0000 </r>
       <r>  -39.6493    1.0000 </r>
       <r>  -39.6471    1.0000 </r>
       <r>  -18.9905    1.0000 </r>
       <r>  -18.9872    1.0000 </r>
       <r>  -18.9107    1.0000 </r>
       <r>  -18.9087    1.0000 </r>
       <r>  -18.9035    1.0000 </r>
       <r>  -18.9015    1.0000 </r>
       <r>  -18.8116    1.0000 </r>
       <r>  -18.8086    1.0000 </r>
       <r>  -18.7985    1.0000 </r>
       <r>  -18.7958    1.0000 </r>
       <r>  -18.7529    1.0000 </r>
       <r>  -18.7491    1.0000 </r>
       <r>  -18.7432    1.0000 </r>
       <r>  -18.7394    1.0000 </r>
       <r>  -18.7357    1.0000 </r>
       <r>  -18.7309    1.0000 </r>
       <r>  -18.6881    1.0000 </r>
       <r>  -18.6866    1.0000 </r>
       <r>  -18.6795    1.0000 </r>
       <r>  -18.6782    1.0000 </r>
       <r>  -18.6770    1.0000 </r>
       <r>  -18.6765    1.0000 </r>
       <r>  -18.6730    1.0000 </r>
       <r>  -18.6712    1.0000 </r>
       <r>  -18.6687    1.0000 </r>
       <r>  -18.6682    1.0000 </r>
       <r>  -18.6670    1.0000 </r>
       <r>  -18.6653    1.0000 </r>
       <r>  -18.6630    1.0000 </r>
       <r>  -18.6618    1.0000 </r>
       <r>  -18.6589    1.0000 </r>
       <r>  -18.6579    1.0000 </r>
       <r>  -18.6577    1.0000 </r>
       <r>  -18.6552    1.0000 </r>
       <r>  -18.6539    1.0000 </r>
       <r>  -18.6489    1.0000 </r>
       <r>  -18.6477    1.0000 </r>
       <r>  -18.6426    1.0000 </r>
       <r>  -18.6420    1.0000 </r>
       <r>  -18.6357    1.0000 </r>
       <r>  -18.6021    1.0000 </r>
       <r>  -18.6006    1.0000 </r>
       <r>  -18.5966    1.0000 </r>
       <r>  -18.5918    1.0000 </r>
       <r>  -18.5886    1.0000 </r>
       <r>  -18.5875    1.0000 </r>
       <r>  -18.5793    1.0000 </r>
       <r>  -18.5776    1.0000 </r>
       <r>  -18.5759    1.0000 </r>
       <r>  -18.5745    1.0000 </r>
       <r>  -18.5326    1.0000 </r>
       <r>  -18.5302    1.0000 </r>
       <r>  -18.5196    1.0000 </r>
       <r>  -18.5189    1.0000 </r>
       <r>  -18.5173    1.0000 </r>
       <r>  -18.5141    1.0000 </r>
       <r>  -18.5137    1.0000 </r>
       <r>  -18.5124    1.0000 </r>
       <r>  -18.5118    1.0000 </r>
       <r>  -18.5107    1.0000 </r>
       <r>  -18.5105    1.0000 </r>
       <r>  -18.5045    1.0000 </r>
       <r>  -18.4901    1.0000 </r>
       <r>  -18.4849    1.0000 </r>
       <r>  -18.4833    1.0000 </r>
       <r>  -18.4771    1.0000 </r>
       <r>  -18.4513    1.0000 </r>
       <r>  -18.4500    1.0000 </r>
       <r>  -18.4451    1.0000 </r>
       <r>  -18.4432    1.0000 </r>
       <r>  -18.4380    1.0000 </r>
       <r>  -18.4367    1.0000 </r>
       <r>  -18.4264    1.0000 </r>
       <r>  -18.4245    1.0000 </r>
       <r>  -18.3679    1.0000 </r>
       <r>  -18.3665    1.0000 </r>
       <r>  -18.2490    1.0000 </r>
       <r>  -18.2476    1.0000 </r>
       <r>  -18.2355    1.0000 </r>
       <r>  -18.2336    1.0000 </r>
       <r>  -13.7195    1.0000 </r>
       <r>  -13.5723    1.0000 </r>
       <r>  -12.9426    1.0000 </r>
       <r>  -12.8209    1.0000 </r>
       <r>  -12.8048    1.0000 </r>
       <r>  -12.7979    1.0000 </r>
       <r>  -12.7288    1.0000 </r>
       <r>  -12.7274    1.0000 </r>
       <r>  -12.7159    1.0000 </r>
       <r>  -12.7000    1.0000 </r>
       <r>  -12.6583    1.0000 </r>
       <r>  -12.6282    1.0000 </r>
       <r>  -12.6155    1.0000 </r>
       <r>  -12.5960    1.0000 </r>
       <r>  -12.0939    1.0000 </r>
       <r>  -12.0496    1.0000 </r>
       <r>   -9.3658    1.0000 </r>
       <r>   -9.0700    1.0000 </r>
       <r>   -8.5716    1.0000 </r>
       <r>   -8.5331    1.0000 </r>
       <r>   -8.5198    1.0000 </r>
       <r>   -8.4809    1.0000 </r>
       <r>   -8.3500    1.0000 </r>
       <r>   -8.3127    1.0000 </r>
       <r>   -8.2931    1.0000 </r>
       <r>   -8.2564    1.0000 </r>
       <r>   -8.0642    1.0000 </r>
       <r>   -8.0635    1.0000 </r>
       <r>   -8.0277    1.0000 </r>
       <r>   -8.0250    1.0000 </r>
       <r>   -7.3918    1.0000 </r>
       <r>   -7.3909    1.0000 </r>
       <r>   -6.4180    1.0000 </r>
       <r>   -6.4137    1.0000 </r>
       <r>   -6.3697    1.0000 </r>
       <r>   -6.3669    1.0000 </r>
       <r>   -5.5653    1.0000 </r>
       <r>   -5.5297    1.0000 </r>
       <r>   -5.3961    1.0000 </r>
       <r>   -5.3721    1.0000 </r>
       <r>   -5.3648    1.0000 </r>
       <r>   -5.2847    1.0000 </r>
       <r>   -5.2458    1.0000 </r>
       <r>   -5.1966    1.0000 </r>
       <r>   -5.1674    1.0000 </r>
       <r>   -5.1039    1.0000 </r>
       <r>   -3.8451    1.0000 </r>
       <r>   -3.6967    1.0000 </r>
       <r>   -1.4896    1.0000 </r>
       <r>   -1.3729    1.0000 </r>
       <r>   -1.1358    1.0000 </r>
       <r>   -1.0410    1.0000 </r>
       <r>   -0.5897    1.0000 </r>
       <r>   -0.5694    1.0000 </r>
       <r>   -0.5265    1.0000 </r>
       <r>   -0.5052    1.0000 </r>
       <r>   -0.2180    1.0000 </r>
       <r>   -0.2032    1.0000 </r>
       <r>   -0.1989    1.0000 </r>
       <r>   -0.1884    1.0000 </r>
       <r>   -0.1715    1.0000 </r>
       <r>    0.2120    1.0000 </r>
       <r>    0.2675    1.0000 </r>
       <r>    0.3753    1.0000 </r>
       <r>    0.4580    1.0000 </r>
       <r>    0.5452    1.0000 </r>
       <r>    0.5507    1.0000 </r>
       <r>    0.5944    1.0000 </r>
       <r>    0.6493    1.0000 </r>
       <r>    0.6754    1.0000 </r>
       <r>    0.7128    1.0000 </r>
       <r>    0.7608    1.0000 </r>
       <r>    0.7636    1.0000 </r>
       <r>    0.8099    1.0000 </r>
       <r>    0.8450    1.0000 </r>
       <r>    0.9018    1.0000 </r>
       <r>    0.9084    1.0000 </r>
       <r>    0.9545    1.0000 </r>
       <r>    1.0157    1.0000 </r>
       <r>    1.0316    1.0000 </r>
       <r>    1.0554    1.0000 </r>
       <r>    1.0586    1.0000 </r>
       <r>    1.1088    1.0000 </r>
       <r>    1.2145    1.0000 </r>
       <r>    1.2310    1.0000 </r>
       <r>    1.3281    1.0000 </r>
       <r>    1.3655    1.0000 </r>
       <r>    1.4235    1.0000 </r>
       <r>    1.4561    1.0000 </r>
       <r>    1.4913    1.0000 </r>
       <r>    1.5544    1.0000 </r>
       <r>    1.6156    1.0000 </r>
       <r>    1.6822    1.0000 </r>
       <r>    1.6902    1.0000 </r>
       <r>    1.7308    1.0000 </r>
       <r>    1.7955    1.0000 </r>
       <r>    1.8174    1.0000 </r>
       <r>    1.8388    1.0000 </r>
       <r>    1.8889    1.0000 </r>
       <r>    1.9580    1.0000 </r>
       <r>    1.9699    1.0000 </r>
       <r>    2.0317    1.0000 </r>
       <r>    2.2140    1.0000 </r>
       <r>    2.2429    1.0000 </r>
       <r>    2.3277    1.0000 </r>
       <r>    2.3976    1.0000 </r>
       <r>    2.5262    1.0000 </r>
       <r>    2.5281    1.0000 </r>
       <r>    2.5330    1.0000 </r>
       <r>    2.5478    1.0000 </r>
       <r>    2.5693    1.0000 </r>
       <r>    2.5827    1.0000 </r>
       <r>    2.5988    1.0000 </r>
       <r>    2.6257    1.0000 </r>
       <r>    2.6436    1.0000 </r>
       <r>    2.6921    1.0000 </r>
       <r>    2.7216    1.0000 </r>
       <r>    2.7547    1.0000 </r>
       <r>    2.7842    1.0000 </r>
       <r>    2.8494    1.0000 </r>
       <r>    2.8518    1.0000 </r>
       <r>    2.8562    1.0000 </r>
       <r>    2.9290    1.0000 </r>
       <r>    2.9656    1.0000 </r>
       <r>    3.0126    1.0000 </r>
       <r>    3.0217    1.0000 </r>
       <r>    3.0430    1.0000 </r>
       <r>    3.0726    1.0000 </r>
       <r>    3.1044    1.0000 </r>
       <r>    3.1154    1.0000 </r>
       <r>    3.1325    1.0000 </r>
       <r>    3.1499    1.0000 </r>
       <r>    3.1892    1.0000 </r>
       <r>    3.1910    1.0000 </r>
       <r>    3.2333    1.0000 </r>
       <r>    3.2930    1.0000 </r>
       <r>    3.3982    1.0000 </r>
       <r>    3.4148    1.0000 </r>
       <r>    3.4387    1.0000 </r>
       <r>    3.5186    1.0000 </r>
       <r>    4.1481    1.0000 </r>
       <r>    4.1581    1.0000 </r>
       <r>    4.1875    1.0000 </r>
       <r>    4.1974    1.0000 </r>
       <r>    5.0113    0.0000 </r>
       <r>    5.0134    0.0000 </r>
       <r>    5.1231    0.0000 </r>
       <r>    5.1278    0.0000 </r>
       <r>    5.7094    0.0000 </r>
       <r>    5.7183    0.0000 </r>
       <r>    5.7861    0.0000 </r>
       <r>    5.7897    0.0000 </r>
       <r>    6.0715    0.0000 </r>
       <r>    6.0789    0.0000 </r>
       <r>    6.1131    0.0000 </r>
       <r>    6.1274    0.0000 </r>
       <r>    6.1971    0.0000 </r>
       <r>    6.2022    0.0000 </r>
       <r>    6.2317    0.0000 </r>
       <r>    6.2356    0.0000 </r>
       <r>    7.0320    0.0000 </r>
       <r>    7.1112    0.0000 </r>
       <r>    7.2172    0.0000 </r>
       <r>    7.2745    0.0000 </r>
       <r>    7.7718    0.0000 </r>
       <r>    7.8056    0.0000 </r>
       <r>    7.8929    0.0000 </r>
       <r>    7.8960    0.0000 </r>
       <r>    7.9285    0.0000 </r>
       <r>    7.9711    0.0000 </r>
       <r>    8.0788    0.0000 </r>
       <r>    8.1309    0.0000 </r>
       <r>    8.2834    0.0000 </r>
       <r>    8.5010    0.0000 </r>
       <r>    8.6248    0.0000 </r>
       <r>    8.7395    0.0000 </r>
       <r>    8.7569    0.0000 </r>
       <r>    8.8214    0.0000 </r>
       <r>    8.8789    0.0000 </r>
       <r>    8.9721    0.0000 </r>
       <r>    8.9804    0.0000 </r>
       <r>    9.0089    0.0000 </r>
       <r>    9.0197    0.0000 </r>
       <r>    9.0672    0.0000 </r>
       <r>    9.1025    0.0000 </r>
       <r>    9.1242    0.0000 </r>
       <r>    9.1890    0.0000 </r>
       <r>    9.2225    0.0000 </r>
       <r>    9.3602    0.0000 </r>
       <r>    9.4719    0.0000 </r>
       <r>    9.4772    0.0000 </r>
       <r>    9.5184    0.0000 </r>
       <r>    9.7204    0.0000 </r>
       <r>    9.7360    0.0000 </r>
      </set>
      <set comment="kpoint 2">
       <r>  -40.0647    1.0000 </r>
       <r>  -40.0623    1.0000 </r>
       <r>  -39.9231    1.0000 </r>
       <r>  -39.7538    1.0000 </r>
       <r>  -39.6493    1.0000 </r>
       <r>  -39.6471    1.0000 </r>
       <r>  -18.9905    1.0000 </r>
       <r>  -18.9871    1.0000 </r>
       <r>  -18.9106    1.0000 </r>
       <r>  -18.9086    1.0000 </r>
       <r>  -18.9034    1.0000 </r>
       <r>  -18.9015    1.0000 </r>
       <r>  -18.8116    1.0000 </r>
       <r>  -18.8086    1.0000 </r>
       <r>  -18.7985    1.0000 </r>
       <r>  -18.7958    1.0000 </r>
       <r>  -18.7530    1.0000 </r>
       <r>  -18.7491    1.0000 </r>
       <r>  -18.7431    1.0000 </r>
       <r>  -18.7394    1.0000 </r>
       <r>  -18.7357    1.0000 </r>
       <r>  -18.7309    1.0000 </r>
       <r>  -18.6878    1.0000 </r>
       <r>  -18.6862    1.0000 </r>
       <r>  -18.6795    1.0000 </r>
       <r>  -18.6780    1.0000 </r>
       <r>  -18.6776    1.0000 </r>
       <r>  -18.6768    1.0000 </r>
       <r>  -18.6733    1.0000 </r>
       <r>  -18.6714    1.0000 </r>
       <r>  -18.6685    1.0000 </r>
       <r>  -18.6681    1.0000 </r>
       <r>  -18.6672    1.0000 </r>
       <r>  -18.6646    1.0000 </r>
       <r>  -18.6631    1.0000 </r>
       <r>  -18.6623    1.0000 </r>
       <r>  -18.6596    1.0000 </r>
       <r>  -18.6577    1.0000 </r>
       <r>  -18.6576    1.0000 </r>
       <r>  -18.6554    1.0000 </r>
       <r>  -18.6538    1.0000 </r>
       <r>  -18.6489    1.0000 </r>
       <r>  -18.6475    1.0000 </r>
       <r>  -18.6424    1.0000 </r>
       <r>  -18.6420    1.0000 </r>
       <r>  -18.6357    1.0000 </r>
       <r>  -18.6020    1.0000 </r>
       <r>  -18.6005    1.0000 </r>
       <r>  -18.5966    1.0000 </r>
       <r>  -18.5918    1.0000 </r>
       <r>  -18.5887    1.0000 </r>
       <r>  -18.5875    1.0000 </r>
       <r>  -18.5793    1.0000 </r>
       <r>  -18.5776    1.0000 </r>
       <r>  -18.5759    1.0000 </r>
       <r>  -18.5745    1.0000 </r>
       <r>  -18.5326    1.0000 </r>
       <r>  -18.5302    1.0000 </r>
       <r>  -18.5196    1.0000 </r>
       <r>  -18.5189    1.0000 </r>
       <r>  -18.5173    1.0000 </r>
       <r>  -18.5141    1.0000 </r>
       <r>  -18.5137    1.0000 </r>
       <r>  -18.5124    1.0000 </r>
       <r>  -18.5118    1.0000 </r>
       <r>  -18.5107    1.0000 </r>
       <r>  -18.5105    1.0000 </r>
       <r>  -18.5045    1.0000 </r>
       <r>  -18.4901    1.0000 </r>
       <r>  -18.4849    1.0000 </r>
       <r>  -18.4833    1.0000 </r>
       <r>  -18.4771    1.0000 </r>
       <r>  -18.4513    1.0000 </r>
       <r>  -18.4500    1.0000 </r>
       <r>  -18.4451    1.0000 </r>
       <r>  -18.4432    1.0000 </r>
       <r>  -18.4380    1.0000 </r>
       <r>  -18.4367    1.0000 </r>
       <r>  -18.4264    1.0000 </r>
       <r>  -18.4245    1.0000 </r>
       <r>  -18.3679    1.0000 </r>
       <r>  -18.3665    1.0000 </r>
       <r>  -18.2490    1.0000 </r>
       <r>  -18.2476    1.0000 </r>
       <r>  -18.2355    1.0000 </r>
       <r>  -18.2336    1.0000 </r>
       <r>  -13.7190    1.0000 </r>
       <r>  -13.5729    1.0000 </r>
       <r>  -12.9384    1.0000 </r>
       <r>  -12.8294    1.0000 </r>
       <r>  -12.7992    1.0000 </r>
       <r>  -12.7737    1.0000 </r>
       <r>  -12.7645    1.0000 </r>
       <r>  -12.7589    1.0000 </r>
       <r>  -12.6971    1.0000 </r>
       <r>  -12.6650    1.0000 </r>
       <r>  -12.6543    1.0000 </r>
       <r>  -12.6417    1.0000 </r>
       <r>  -12.6151    1.0000 </r>
       <r>  -12.5989    1.0000 </r>
       <r>  -12.0944    1.0000 </r>
       <r>  -12.0492    1.0000 </r>
       <r>   -9.1664    1.0000 </r>
       <r>   -9.1367    1.0000 </r>
       <r>   -8.8915    1.0000 </r>
       <r>   -8.8598    1.0000 </r>
       <r>   -8.3597    1.0000 </r>
       <r>   -8.3520    1.0000 </r>
       <r>   -8.3514    1.0000 </r>
       <r>   -8.3480    1.0000 </r>
       <r>   -8.1716    1.0000 </r>
       <r>   -8.1650    1.0000 </r>
       <r>   -8.1646    1.0000 </r>
       <r>   -8.1611    1.0000 </r>
       <r>   -7.7275    1.0000 </r>
       <r>   -7.7207    1.0000 </r>
       <r>   -7.6180    1.0000 </r>
       <r>   -7.6102    1.0000 </r>
       <r>   -6.0314    1.0000 </r>
       <r>   -5.9907    1.0000 </r>
       <r>   -5.9203    1.0000 </r>
       <r>   -5.9126    1.0000 </r>
       <r>   -5.8854    1.0000 </r>
       <r>   -5.8069    1.0000 </r>
       <r>   -5.7722    1.0000 </r>
       <r>   -5.7616    1.0000 </r>
       <r>   -5.6674    1.0000 </r>
       <r>   -5.6220    1.0000 </r>
       <r>   -5.5435    1.0000 </r>
       <r>   -5.5295    1.0000 </r>
       <r>   -4.4602    1.0000 </r>
       <r>   -4.4593    1.0000 </r>
       <r>   -4.2975    1.0000 </r>
       <r>   -4.2926    1.0000 </r>
       <r>   -1.2105    1.0000 </r>
       <r>   -1.1637    1.0000 </r>
       <r>   -0.8535    1.0000 </r>
       <r>   -0.8324    1.0000 </r>
       <r>   -0.6308    1.0000 </r>
       <r>   -0.3630    1.0000 </r>
       <r>   -0.0885    1.0000 </r>
       <r>   -0.0103    1.0000 </r>
       <r>    0.0652    1.0000 </r>
       <r>    0.0678    1.0000 </r>
       <r>    0.1094    1.0000 </r>
       <r>    0.1189    1.0000 </r>
       <r>    0.1713    1.0000 </r>
       <r>    0.2591    1.0000 </r>
       <r>    0.2728    1.0000 </r>
       <r>    0.2788    1.0000 </r>
       <r>    0.4759    1.0000 </r>
       <r>    0.5370    1.0000 </r>
       <r>    0.5395    1.0000 </r>
       <r>    0.5447    1.0000 </r>
       <r>    0.5546    1.0000 </r>
       <r>    0.5857    1.0000 </r>
       <r>    0.6092    1.0000 </r>
       <r>    0.6799    1.0000 </r>
       <r>    0.7024    1.0000 </r>
       <r>    0.7504    1.0000 </r>
       <r>    0.8006    1.0000 </r>
       <r>    0.8780    1.0000 </r>
       <r>    0.8897    1.0000 </r>
       <r>    0.9801    1.0000 </r>
       <r>    0.9921    1.0000 </r>
       <r>    1.0883    1.0000 </r>
       <r>    1.1280    1.0000 </r>
       <r>    1.1527    1.0000 </r>
       <r>    1.1663    1.0000 </r>
       <r>    1.2618    1.0000 </r>
       <r>    1.2725    1.0000 </r>
       <r>    1.2825    1.0000 </r>
       <r>    1.3071    1.0000 </r>
       <r>    1.3736    1.0000 </r>
       <r>    1.4053    1.0000 </r>
       <r>    1.4731    1.0000 </r>
       <r>    1.4848    1.0000 </r>
       <r>    1.4992    1.0000 </r>
       <r>    1.5710    1.0000 </r>
       <r>    1.6137    1.0000 </r>
       <r>    1.6245    1.0000 </r>
       <r>    1.7375    1.0000 </r>
       <r>    1.7907    1.0000 </r>
       <r>    1.8045    1.0000 </r>
       <r>    1.8551    1.0000 </r>
       <r>    1.8786    1.0000 </r>
       <r>    1.9247    1.0000 </r>
       <r>    1.9782    1.0000 </r>
       <r>    1.9922    1.0000 </r>
       <r>    2.0001    1.0000 </r>
       <r>    2.0752    1.0000 </r>
       <r>    2.1511    1.0000 </r>
       <r>    2.1924    1.0000 </r>
       <r>    2.1978    1.0000 </r>
       <r>    2.3000    1.0000 </r>
       <r>    2.3109    1.0000 </r>
       <r>    2.3887    1.0000 </r>
       <r>    2.4753    1.0000 </r>
       <r>    2.5005    1.0000 </r>
       <r>    2.5248    1.0000 </r>
       <r>    2.5856    1.0000 </r>
       <r>    2.5958    1.0000 </r>
       <r>    2.6107    1.0000 </r>
       <r>    2.6366    1.0000 </r>
       <r>    2.6831    1.0000 </r>
       <r>    2.7233    1.0000 </r>
       <r>    2.7605    1.0000 </r>
       <r>    2.7941    1.0000 </r>
       <r>    2.8234    1.0000 </r>
       <r>    2.8367    1.0000 </r>
       <r>    2.8772    1.0000 </r>
       <r>    2.9136    1.0000 </r>
       <r>    2.9322    1.0000 </r>
       <r>    2.9859    1.0000 </r>
       <r>    3.0301    1.0000 </r>
       <r>    3.0812    1.0000 </r>
       <r>    3.1073    1.0000 </r>
       <r>    3.1388    1.0000 </r>
       <r>    3.1774    1.0000 </r>
       <r>    3.2056    1.0000 </r>
       <r>    3.2299    1.0000 </r>
       <r>    3.2376    1.0000 </r>
       <r>    3.4567    1.0000 </r>
       <r>    3.4857    1.0000 </r>
       <r>    3.4868    1.0000 </r>
       <r>    3.5313    1.0000 </r>
       <r>    3.5644    1.0000 </r>
       <r>    3.5755    1.0000 </r>
       <r>    3.5887    1.0000 </r>
       <r>    3.7301    1.0000 </r>
       <r>    5.6455    0.0000 </r>
       <r>    5.6481    0.0000 </r>
       <r>    5.6523    0.0000 </r>
       <r>    5.6538    0.0000 </r>
       <r>    5.7274    0.0000 </r>
       <r>    5.7352    0.0000 </r>
       <r>    5.7487    0.0000 </r>
       <r>    5.7552    0.0000 </r>
       <r>    7.1669    0.0000 </r>
       <r>    7.1760    0.0000 </r>
       <r>    7.2653    0.0000 </r>
       <r>    7.2714    0.0000 </r>
       <r>    7.3715    0.0000 </r>
       <r>    7.3752    0.0000 </r>
       <r>    7.3870    0.0000 </r>
       <r>    7.3887    0.0000 </r>
       <r>    7.4081    0.0000 </r>
       <r>    7.4542    0.0000 </r>
       <r>    7.4955    0.0000 </r>
       <r>    7.5094    0.0000 </r>
       <r>    7.7740    0.0000 </r>
       <r>    7.8160    0.0000 </r>
       <r>    7.8255    0.0000 </r>
       <r>    7.8278    0.0000 </r>
       <r>    7.8480    0.0000 </r>
       <r>    7.8751    0.0000 </r>
       <r>    7.8843    0.0000 </r>
       <r>    7.9102    0.0000 </r>
       <r>    7.9844    0.0000 </r>
       <r>    7.9852    0.0000 </r>
       <r>    8.0808    0.0000 </r>
       <r>    8.0911    0.0000 </r>
       <r>    8.2621    0.0000 </r>
       <r>    8.3354    0.0000 </r>
       <r>    8.3503    0.0000 </r>
       <r>    8.3534    0.0000 </r>
       <r>    8.6163    0.0000 </r>
       <r>    8.6687    0.0000 </r>
       <r>    8.7324    0.0000 </r>
       <r>    8.7417    0.0000 </r>
       <r>    8.7783    0.0000 </r>
       <r>    8.7893    0.0000 </r>
       <r>    8.8907    0.0000 </r>
       <r>    8.8945    0.0000 </r>
       <r>    9.1222    0.0000 </r>
       <r>    9.1857    0.0000 </r>
       <r>    9.2562    0.0000 </r>
       <r>    9.3980    0.0000 </r>
       <r>    9.4469    0.0000 </r>
       <r>    9.4969    0.0000 </r>
      </set>
      <set comment="kpoint 3">
       <r>  -40.0647    1.0000 </r>
       <r>  -40.0623    1.0000 </r>
       <r>  -39.9231    1.0000 </r>
       <r>  -39.7538    1.0000 </r>
       <r>  -39.6493    1.0000 </r>
       <r>  -39.6471    1.0000 </r>
       <r>  -18.9908    1.0000 </r>
       <r>  -18.9869    1.0000 </r>
       <r>  -18.9107    1.0000 </r>
       <r>  -18.9087    1.0000 </r>
       <r>  -18.9035    1.0000 </r>
       <r>  -18.9015    1.0000 </r>
       <r>  -18.8115    1.0000 </r>
       <r>  -18.8086    1.0000 </r>
       <r>  -18.7985    1.0000 </r>
       <r>  -18.7958    1.0000 </r>
       <r>  -18.7530    1.0000 </r>
       <r>  -18.7491    1.0000 </r>
       <r>  -18.7432    1.0000 </r>
       <r>  -18.7394    1.0000 </r>
       <r>  -18.7357    1.0000 </r>
       <r>  -18.7310    1.0000 </r>
       <r>  -18.6881    1.0000 </r>
       <r>  -18.6865    1.0000 </r>
       <r>  -18.6795    1.0000 </r>
       <r>  -18.6782    1.0000 </r>
       <r>  -18.6770    1.0000 </r>
       <r>  -18.6765    1.0000 </r>
       <r>  -18.6730    1.0000 </r>
       <r>  -18.6712    1.0000 </r>
       <r>  -18.6687    1.0000 </r>
       <r>  -18.6682    1.0000 </r>
       <r>  -18.6670    1.0000 </r>
       <r>  -18.6653    1.0000 </r>
       <r>  -18.6630    1.0000 </r>
       <r>  -18.6618    1.0000 </r>
       <r>  -18.6590    1.0000 </r>
       <r>  -18.6580    1.0000 </r>
       <r>  -18.6576    1.0000 </r>
       <r>  -18.6552    1.0000 </r>
       <r>  -18.6539    1.0000 </r>
       <r>  -18.6490    1.0000 </r>
       <r>  -18.6477    1.0000 </r>
       <r>  -18.6427    1.0000 </r>
       <r>  -18.6419    1.0000 </r>
       <r>  -18.6357    1.0000 </r>
       <r>  -18.6021    1.0000 </r>
       <r>  -18.6006    1.0000 </r>
       <r>  -18.5966    1.0000 </r>
       <r>  -18.5918    1.0000 </r>
       <r>  -18.5886    1.0000 </r>
       <r>  -18.5875    1.0000 </r>
       <r>  -18.5793    1.0000 </r>
       <r>  -18.5777    1.0000 </r>
       <r>  -18.5758    1.0000 </r>
       <r>  -18.5745    1.0000 </r>
       <r>  -18.5326    1.0000 </r>
       <r>  -18.5302    1.0000 </r>
       <r>  -18.5196    1.0000 </r>
       <r>  -18.5188    1.0000 </r>
       <r>  -18.5173    1.0000 </r>
       <r>  -18.5141    1.0000 </r>
       <r>  -18.5137    1.0000 </r>
       <r>  -18.5124    1.0000 </r>
       <r>  -18.5118    1.0000 </r>
       <r>  -18.5107    1.0000 </r>
       <r>  -18.5104    1.0000 </r>
       <r>  -18.5045    1.0000 </r>
       <r>  -18.4900    1.0000 </r>
       <r>  -18.4849    1.0000 </r>
       <r>  -18.4833    1.0000 </r>
       <r>  -18.4771    1.0000 </r>
       <r>  -18.4513    1.0000 </r>
       <r>  -18.4500    1.0000 </r>
       <r>  -18.4451    1.0000 </r>
       <r>  -18.4432    1.0000 </r>
       <r>  -18.4380    1.0000 </r>
       <r>  -18.4367    1.0000 </r>
       <r>  -18.4264    1.0000 </r>
       <r>  -18.4245    1.0000 </r>
       <r>  -18.3680    1.0000 </r>
       <r>  -18.3663    1.0000 </r>
       <r>  -18.2490    1.0000 </r>
       <r>  -18.2476    1.0000 </r>
       <r>  -18.2355    1.0000 </r>
       <r>  -18.2336    1.0000 </r>
       <r>  -13.7193    1.0000 </r>
       <r>  -13.5725    1.0000 </r>
       <r>  -12.9410    1.0000 </r>
       <r>  -12.8202    1.0000 </r>
       <r>  -12.8046    1.0000 </r>
       <r>  -12.7979    1.0000 </r>
       <r>  -12.7290    1.0000 </r>
       <r>  -12.7271    1.0000 </r>
       <r>  -12.7159    1.0000 </r>
       <r>  -12.7000    1.0000 </r>
       <r>  -12.6597    1.0000 </r>
       <r>  -12.6293    1.0000 </r>
       <r>  -12.6157    1.0000 </r>
       <r>  -12.5969    1.0000 </r>
       <r>  -12.0933    1.0000 </r>
       <r>  -12.0510    1.0000 </r>
       <r>   -9.3549    1.0000 </r>
       <r>   -9.0779    1.0000 </r>
       <r>   -8.5894    1.0000 </r>
       <r>   -8.5508    1.0000 </r>
       <r>   -8.5374    1.0000 </r>
       <r>   -8.4976    1.0000 </r>
       <r>   -8.3299    1.0000 </r>
       <r>   -8.2934    1.0000 </r>
       <r>   -8.2728    1.0000 </r>
       <r>   -8.2377    1.0000 </r>
       <r>   -8.0682    1.0000 </r>
       <r>   -8.0674    1.0000 </r>
       <r>   -8.0304    1.0000 </r>
       <r>   -8.0284    1.0000 </r>
       <r>   -7.3944    1.0000 </r>
       <r>   -7.3938    1.0000 </r>
       <r>   -6.4083    1.0000 </r>
       <r>   -6.4040    1.0000 </r>
       <r>   -6.3601    1.0000 </r>
       <r>   -6.3570    1.0000 </r>
       <r>   -5.5845    1.0000 </r>
       <r>   -5.5135    1.0000 </r>
       <r>   -5.4338    1.0000 </r>
       <r>   -5.4146    1.0000 </r>
       <r>   -5.4114    1.0000 </r>
       <r>   -5.3092    1.0000 </r>
       <r>   -5.1891    1.0000 </r>
       <r>   -5.1395    1.0000 </r>
       <r>   -5.1211    1.0000 </r>
       <r>   -5.0538    1.0000 </r>
       <r>   -3.9218    1.0000 </r>
       <r>   -3.6078    1.0000 </r>
       <r>   -1.3925    1.0000 </r>
       <r>   -1.3089    1.0000 </r>
       <r>   -1.2675    1.0000 </r>
       <r>   -1.1314    1.0000 </r>
       <r>   -0.4755    1.0000 </r>
       <r>   -0.4591    1.0000 </r>
       <r>   -0.4448    1.0000 </r>
       <r>   -0.4291    1.0000 </r>
       <r>   -0.4195    1.0000 </r>
       <r>   -0.3941    1.0000 </r>
       <r>   -0.3142    1.0000 </r>
       <r>   -0.2881    1.0000 </r>
       <r>   -0.2030    1.0000 </r>
       <r>   -0.1569    1.0000 </r>
       <r>    0.1549    1.0000 </r>
       <r>    0.2517    1.0000 </r>
       <r>    0.2616    1.0000 </r>
       <r>    0.2783    1.0000 </r>
       <r>    0.3589    1.0000 </r>
       <r>    0.3802    1.0000 </r>
       <r>    0.5157    1.0000 </r>
       <r>    0.5236    1.0000 </r>
       <r>    0.6610    1.0000 </r>
       <r>    0.7130    1.0000 </r>
       <r>    0.7435    1.0000 </r>
       <r>    0.7794    1.0000 </r>
       <r>    0.7857    1.0000 </r>
       <r>    0.8040    1.0000 </r>
       <r>    0.9137    1.0000 </r>
       <r>    0.9751    1.0000 </r>
       <r>    1.0675    1.0000 </r>
       <r>    1.1258    1.0000 </r>
       <r>    1.1920    1.0000 </r>
       <r>    1.2004    1.0000 </r>
       <r>    1.2703    1.0000 </r>
       <r>    1.3022    1.0000 </r>
       <r>    1.3460    1.0000 </r>
       <r>    1.4509    1.0000 </r>
       <r>    1.5275    1.0000 </r>
       <r>    1.5859    1.0000 </r>
       <r>    1.5922    1.0000 </r>
       <r>    1.6201    1.0000 </r>
       <r>    1.7065    1.0000 </r>
       <r>    1.7092    1.0000 </r>
       <r>    1.7284    1.0000 </r>
       <r>    1.7658    1.0000 </r>
       <r>    1.8637    1.0000 </r>
       <r>    1.8659    1.0000 </r>
       <r>    1.9535    1.0000 </r>
       <r>    2.0334    1.0000 </r>
       <r>    2.0402    1.0000 </r>
       <r>    2.0990    1.0000 </r>
       <r>    2.1722    1.0000 </r>
       <r>    2.1922    1.0000 </r>
       <r>    2.2495    1.0000 </r>
       <r>    2.3412    1.0000 </r>
       <r>    2.3449    1.0000 </r>
       <r>    2.4180    1.0000 </r>
       <r>    2.4712    1.0000 </r>
       <r>    2.4828    1.0000 </r>
       <r>    2.4868    1.0000 </r>
       <r>    2.5326    1.0000 </r>
       <r>    2.5418    1.0000 </r>
       <r>    2.5553    1.0000 </r>
       <r>    2.5590    1.0000 </r>
       <r>    2.6157    1.0000 </r>
       <r>    2.6798    1.0000 </r>
       <r>    2.7176    1.0000 </r>
       <r>    2.7394    1.0000 </r>
       <r>    2.7551    1.0000 </r>
       <r>    2.7800    1.0000 </r>
       <r>    2.8227    1.0000 </r>
       <r>    2.8300    1.0000 </r>
       <r>    2.8694    1.0000 </r>
       <r>    2.9154    1.0000 </r>
       <r>    2.9243    1.0000 </r>
       <r>    2.9454    1.0000 </r>
       <r>    2.9797    1.0000 </r>
       <r>    2.9968    1.0000 </r>
       <r>    3.0311    1.0000 </r>
       <r>    3.0392    1.0000 </r>
       <r>    3.1085    1.0000 </r>
       <r>    3.1756    1.0000 </r>
       <r>    3.2483    1.0000 </r>
       <r>    3.3042    1.0000 </r>
       <r>    3.3480    1.0000 </r>
       <r>    3.3659    1.0000 </r>
       <r>    3.3860    1.0000 </r>
       <r>    3.3900    1.0000 </r>
       <r>    3.4343    1.0000 </r>
       <r>    3.4530    1.0000 </r>
       <r>    3.5502    1.0000 </r>
       <r>    4.2007    1.0000 </r>
       <r>    4.2042    1.0000 </r>
       <r>    4.2415    1.0000 </r>
       <r>    4.2416    1.0000 </r>
       <r>    5.0863    0.0000 </r>
       <r>    5.0892    0.0000 </r>
       <r>    5.1877    0.0000 </r>
       <r>    5.1924    0.0000 </r>
       <r>    5.7194    0.0000 </r>
       <r>    5.7247    0.0000 </r>
       <r>    5.7942    0.0000 </r>
       <r>    5.7967    0.0000 </r>
       <r>    6.1251    0.0000 </r>
       <r>    6.1286    0.0000 </r>
       <r>    6.1612    0.0000 </r>
       <r>    6.1643    0.0000 </r>
       <r>    6.2104    0.0000 </r>
       <r>    6.2187    0.0000 </r>
       <r>    6.2456    0.0000 </r>
       <r>    6.2604    0.0000 </r>
       <r>    6.6167    0.0000 </r>
       <r>    6.8837    0.0000 </r>
       <r>    6.9336    0.0000 </r>
       <r>    7.0434    0.0000 </r>
       <r>    7.1701    0.0000 </r>
       <r>    7.2795    0.0000 </r>
       <r>    7.3493    0.0000 </r>
       <r>    7.4786    0.0000 </r>
       <r>    7.6276    0.0000 </r>
       <r>    7.7952    0.0000 </r>
       <r>    7.9028    0.0000 </r>
       <r>    7.9547    0.0000 </r>
       <r>    7.9610    0.0000 </r>
       <r>    8.2806    0.0000 </r>
       <r>    8.3219    0.0000 </r>
       <r>    8.4307    0.0000 </r>
       <r>    8.6292    0.0000 </r>
       <r>    8.6948    0.0000 </r>
       <r>    8.8787    0.0000 </r>
       <r>    8.8887    0.0000 </r>
       <r>    9.0008    0.0000 </r>
       <r>    9.0258    0.0000 </r>
       <r>    9.0437    0.0000 </r>
       <r>    9.0537    0.0000 </r>
       <r>    9.0712    0.0000 </r>
       <r>    9.0885    0.0000 </r>
       <r>    9.1261    0.0000 </r>
       <r>    9.1854    0.0000 </r>
       <r>    9.4361    0.0000 </r>
       <r>    9.4609    0.0000 </r>
       <r>    9.6379    0.0000 </r>
       <r>    9.6906    0.0000 </r>
       <r>    9.7497    0.0000 </r>
       <r>    9.8146    0.0000 </r>
      </set>
      <set comment="kpoint 4">
       <r>  -40.0647    1.0000 </r>
       <r>  -40.0623    1.0000 </r>
       <r>  -39.9231    1.0000 </r>
       <r>  -39.7538    1.0000 </r>
       <r>  -39.6493    1.0000 </r>
       <r>  -39.6471    1.0000 </r>
       <r>  -18.9907    1.0000 </r>
       <r>  -18.9869    1.0000 </r>
       <r>  -18.9106    1.0000 </r>
       <r>  -18.9086    1.0000 </r>
       <r>  -18.9034    1.0000 </r>
       <r>  -18.9015    1.0000 </r>
       <r>  -18.8115    1.0000 </r>
       <r>  -18.8086    1.0000 </r>
       <r>  -18.7985    1.0000 </r>
       <r>  -18.7958    1.0000 </r>
       <r>  -18.7530    1.0000 </r>
       <r>  -18.7491    1.0000 </r>
       <r>  -18.7431    1.0000 </r>
       <r>  -18.7394    1.0000 </r>
       <r>  -18.7356    1.0000 </r>
       <r>  -18.7309    1.0000 </r>
       <r>  -18.6878    1.0000 </r>
       <r>  -18.6862    1.0000 </r>
       <r>  -18.6795    1.0000 </r>
       <r>  -18.6780    1.0000 </r>
       <r>  -18.6776    1.0000 </r>
       <r>  -18.6767    1.0000 </r>
       <r>  -18.6733    1.0000 </r>
       <r>  -18.6713    1.0000 </r>
       <r>  -18.6685    1.0000 </r>
       <r>  -18.6681    1.0000 </r>
       <r>  -18.6672    1.0000 </r>
       <r>  -18.6646    1.0000 </r>
       <r>  -18.6631    1.0000 </r>
       <r>  -18.6623    1.0000 </r>
       <r>  -18.6596    1.0000 </r>
       <r>  -18.6577    1.0000 </r>
       <r>  -18.6576    1.0000 </r>
       <r>  -18.6554    1.0000 </r>
       <r>  -18.6539    1.0000 </r>
       <r>  -18.6489    1.0000 </r>
       <r>  -18.6475    1.0000 </r>
       <r>  -18.6427    1.0000 </r>
       <r>  -18.6418    1.0000 </r>
       <r>  -18.6356    1.0000 </r>
       <r>  -18.6020    1.0000 </r>
       <r>  -18.6005    1.0000 </r>
       <r>  -18.5966    1.0000 </r>
       <r>  -18.5918    1.0000 </r>
       <r>  -18.5887    1.0000 </r>
       <r>  -18.5875    1.0000 </r>
       <r>  -18.5793    1.0000 </r>
       <r>  -18.5777    1.0000 </r>
       <r>  -18.5758    1.0000 </r>
       <r>  -18.5745    1.0000 </r>
       <r>  -18.5326    1.0000 </r>
       <r>  -18.5302    1.0000 </r>
       <r>  -18.5196    1.0000 </r>
       <r>  -18.5188    1.0000 </r>
       <r>  -18.5173    1.0000 </r>
       <r>  -18.5141    1.0000 </r>
       <r>  -18.5137    1.0000 </r>
       <r>  -18.5124    1.0000 </r>
       <r>  -18.5118    1.0000 </r>
       <r>  -18.5107    1.0000 </r>
       <r>  -18.5104    1.0000 </r>
       <r>  -18.5045    1.0000 </r>
       <r>  -18.4900    1.0000 </r>
       <r>  -18.4849    1.0000 </r>
       <r>  -18.4833    1.0000 </r>
       <r>  -18.4771    1.0000 </r>
       <r>  -18.4513    1.0000 </r>
       <r>  -18.4500    1.0000 </r>
       <r>  -18.4451    1.0000 </r>
       <r>  -18.4432    1.0000 </r>
       <r>  -18.4380    1.0000 </r>
       <r>  -18.4367    1.0000 </r>
       <r>  -18.4264    1.0000 </r>
       <r>  -18.4245    1.0000 </r>
       <r>  -18.3680    1.0000 </r>
       <r>  -18.3663    1.0000 </r>
       <r>  -18.2489    1.0000 </r>
       <r>  -18.2476    1.0000 </r>
       <r>  -18.2355    1.0000 </r>
       <r>  -18.2336    1.0000 </r>
       <r>  -13.7188    1.0000 </r>
       <r>  -13.5730    1.0000 </r>
       <r>  -12.9372    1.0000 </r>
[...]
       <r>    8.8070    0.0000 </r>
       <r>    8.8407    0.0000 </r>
       <r>    8.8476    0.0000 </r>
       <r>    8.8617    0.0000 </r>
       <r>    8.8760    0.0000 </r>
       <r>    8.9062    0.0000 </r>
       <r>    8.9162    0.0000 </r>
       <r>    9.4925    0.0000 </r>
       <r>    9.8842    0.0000 </r>
      </set>
     </set>
    </set>
   </array>
  </eigenvalues>
  <separator name="orbital magnetization" >
   <v name="MAGDIPOLOUT">      0.00000000      0.00000000      0.00000000</v>
  </separator>
  <dos>
   <i name="efermi">      4.26380780 </i>
   <total>
    <array>
     <dimension dim="1">gridpoints</dimension>
     <dimension dim="2">spin</dimension>
     <field>energy</field>
     <field>total</field>
     <field>integrated</field>
     <set>
      <set comment="spin 1">
       <r>   -42.5770     0.0000     0.0000 </r>
       <r>   -42.3927     0.0000     0.0000 </r>
       <r>   -42.2085     0.0000     0.0000 </r>
       <r>   -42.0243     0.0000     0.0000 </r>
       <r>   -41.8400     0.0000     0.0000 </r>
       <r>   -41.6558     0.0000     0.0000 </r>
       <r>   -41.4716     0.0000     0.0000 </r>
       <r>   -41.2873     0.0000     0.0000 </r>
       <r>   -41.1031     0.0000     0.0000 </r>
       <r>   -40.9189     0.0000     0.0000 </r>
       <r>   -40.7346     0.0000     0.0000 </r>
       <r>   -40.5504     0.0000     0.0000 </r>
       <r>   -40.3662     0.0000     0.0000 </r>
       <r>   -40.1819     0.0000     0.0000 </r>
       <r>   -39.9977     0.0000     4.0000 </r>
       <r>   -39.8135     0.0000     6.0000 </r>
       <r>   -39.6293     0.0000    12.0000 </r>
       <r>   -39.4450     0.0000    12.0000 </r>
       <r>   -39.2608     0.0000    12.0000 </r>
       <r>   -39.0766     0.0000    12.0000 </r>
       <r>   -38.8923     0.0000    12.0000 </r>
       <r>   -38.7081     0.0000    12.0000 </r>
       <r>   -38.5239     0.0000    12.0000 </r>
       <r>   -38.3396     0.0000    12.0000 </r>
       <r>   -38.1554     0.0000    12.0000 </r>
       <r>   -37.9712     0.0000    12.0000 </r>
       <r>   -37.7869     0.0000    12.0000 </r>
       <r>   -37.6027     0.0000    12.0000 </r>
       <r>   -37.4185     0.0000    12.0000 </r>
       <r>   -37.2342     0.0000    12.0000 </r>
       <r>   -37.0500     0.0000    12.0000 </r>
       <r>   -36.8658     0.0000    12.0000 </r>
       <r>   -36.6816     0.0000    12.0000 </r>
       <r>   -36.4973     0.0000    12.0000 </r>
       <r>   -36.3131     0.0000    12.0000 </r>
       <r>   -36.1289     0.0000    12.0000 </r>
       <r>   -35.9446     0.0000    12.0000 </r>
       <r>   -35.7604     0.0000    12.0000 </r>
       <r>   -35.5762     0.0000    12.0000 </r>
       <r>   -35.3919     0.0000    12.0000 </r>
       <r>   -35.2077     0.0000    12.0000 </r>
       <r>   -35.0235     0.0000    12.0000 </r>
       <r>   -34.8392     0.0000    12.0000 </r>
       <r>   -34.6550     0.0000    12.0000 </r>
       <r>   -34.4708     0.0000    12.0000 </r>
       <r>   -34.2866     0.0000    12.0000 </r>
       <r>   -34.1023     0.0000    12.0000 </r>
       <r>   -33.9181     0.0000    12.0000 </r>
       <r>   -33.7339     0.0000    12.0000 </r>
       <r>   -33.5496     0.0000    12.0000 </r>
       <r>   -33.3654     0.0000    12.0000 </r>
       <r>   -33.1812     0.0000    12.0000 </r>
       <r>   -32.9969     0.0000    12.0000 </r>
       <r>   -32.8127     0.0000    12.0000 </r>
       <r>   -32.6285     0.0000    12.0000 </r>
       <r>   -32.4442     0.0000    12.0000 </r>
       <r>   -32.2600     0.0000    12.0000 </r>
       <r>   -32.0758     0.0000    12.0000 </r>
       <r>   -31.8915     0.0000    12.0000 </r>
       <r>   -31.7073     0.0000    12.0000 </r>
       <r>   -31.5231     0.0000    12.0000 </r>
       <r>   -31.3389     0.0000    12.0000 </r>
       <r>   -31.1546     0.0000    12.0000 </r>
       <r>   -30.9704     0.0000    12.0000 </r>
       <r>   -30.7862     0.0000    12.0000 </r>
       <r>   -30.6019     0.0000    12.0000 </r>
       <r>   -30.4177     0.0000    12.0000 </r>
       <r>   -30.2335     0.0000    12.0000 </r>
       <r>   -30.0492     0.0000    12.0000 </r>
       <r>   -29.8650     0.0000    12.0000 </r>
       <r>   -29.6808     0.0000    12.0000 </r>
       <r>   -29.4965     0.0000    12.0000 </r>
       <r>   -29.3123     0.0000    12.0000 </r>
       <r>   -29.1281     0.0000    12.0000 </r>
       <r>   -28.9438     0.0000    12.0000 </r>
       <r>   -28.7596     0.0000    12.0000 </r>
       <r>   -28.5754     0.0000    12.0000 </r>
       <r>   -28.3912     0.0000    12.0000 </r>
       <r>   -28.2069     0.0000    12.0000 </r>
       <r>   -28.0227     0.0000    12.0000 </r>
       <r>   -27.8385     0.0000    12.0000 </r>
       <r>   -27.6542     0.0000    12.0000 </r>
       <r>   -27.4700     0.0000    12.0000 </r>
       <r>   -27.2858     0.0000    12.0000 </r>
       <r>   -27.1015     0.0000    12.0000 </r>
       <r>   -26.9173     0.0000    12.0000 </r>
       <r>   -26.7331     0.0000    12.0000 </r>
       <r>   -26.5488     0.0000    12.0000 </r>
       <r>   -26.3646     0.0000    12.0000 </r>
       <r>   -26.1804     0.0000    12.0000 </r>
       <r>   -25.9962     0.0000    12.0000 </r>
       <r>   -25.8119     0.0000    12.0000 </r>
       <r>   -25.6277     0.0000    12.0000 </r>
       <r>   -25.4435     0.0000    12.0000 </r>
       <r>   -25.2592     0.0000    12.0000 </r>
       <r>   -25.0750     0.0000    12.0000 </r>
       <r>   -24.8908     0.0000    12.0000 </r>
       <r>   -24.7065     0.0000    12.0000 </r>
       <r>   -24.5223     0.0000    12.0000 </r>
       <r>   -24.3381     0.0000    12.0000 </r>
       <r>   -24.1538     0.0000    12.0000 </r>
       <r>   -23.9696     0.0000    12.0000 </r>
       <r>   -23.7854     0.0000    12.0000 </r>
       <r>   -23.6011     0.0000    12.0000 </r>
       <r>   -23.4169     0.0000    12.0000 </r>
       <r>   -23.2327     0.0000    12.0000 </r>
       <r>   -23.0485     0.0000    12.0000 </r>
       <r>   -22.8642     0.0000    12.0000 </r>
       <r>   -22.6800     0.0000    12.0000 </r>
       <r>   -22.4958     0.0000    12.0000 </r>
       <r>   -22.3115     0.0000    12.0000 </r>
       <r>   -22.1273     0.0000    12.0000 </r>
       <r>   -21.9431     0.0000    12.0000 </r>
       <r>   -21.7588     0.0000    12.0000 </r>
       <r>   -21.5746     0.0000    12.0000 </r>
       <r>   -21.3904     0.0000    12.0000 </r>
       <r>   -21.2061     0.0000    12.0000 </r>
       <r>   -21.0219     0.0000    12.0000 </r>
       <r>   -20.8377     0.0000    12.0000 </r>
       <r>   -20.6534     0.0000    12.0000 </r>
       <r>   -20.4692     0.0000    12.0000 </r>
       <r>   -20.2850     0.0000    12.0000 </r>
       <r>   -20.1008     0.0000    12.0000 </r>
       <r>   -19.9165     0.0000    12.0000 </r>
       <r>   -19.7323     0.0000    12.0000 </r>
       <r>   -19.5481     0.0000    12.0000 </r>
       <r>   -19.3638     0.0000    12.0000 </r>
       <r>   -19.1796     0.0000    12.0000 </r>
       <r>   -18.9954     0.0000    12.0000 </r>
       <r>   -18.8111     0.0000    26.0000 </r>
       <r>   -18.6269     0.0000    92.0000 </r>
       <r>   -18.4427     0.0000   152.0000 </r>
       <r>   -18.2584     0.0000   164.0000 </r>
       <r>   -18.0742     0.0000   172.0000 </r>
       <r>   -17.8900     0.0000   172.0000 </r>
       <r>   -17.7058     0.0000   172.0000 </r>
       <r>   -17.5215     0.0000   172.0000 </r>
       <r>   -17.3373     0.0000   172.0000 </r>
       <r>   -17.1531     0.0000   172.0000 </r>
       <r>   -16.9688     0.0000   172.0000 </r>
       <r>   -16.7846     0.0000   172.0000 </r>
       <r>   -16.6004     0.0000   172.0000 </r>
       <r>   -16.4161     0.0000   172.0000 </r>
       <r>   -16.2319     0.0000   172.0000 </r>
       <r>   -16.0477     0.0000   172.0000 </r>
       <r>   -15.8634     0.0000   172.0000 </r>
       <r>   -15.6792     0.0000   172.0000 </r>
       <r>   -15.4950     0.0000   172.0000 </r>
       <r>   -15.3107     0.0000   172.0000 </r>
       <r>   -15.1265     0.0000   172.0000 </r>
       <r>   -14.9423     0.0000   172.0000 </r>
       <r>   -14.7581     0.0000   172.0000 </r>
       <r>   -14.5738     0.0000   172.0000 </r>
       <r>   -14.3896     0.0000   172.0000 </r>
       <r>   -14.2054     0.0000   172.0000 </r>
       <r>   -14.0211     0.0000   172.0000 </r>
       <r>   -13.8369     0.0000   172.0000 </r>
       <r>   -13.6527     0.0000   174.0000 </r>
       <r>   -13.4684     0.0000   176.0000 </r>
       <r>   -13.2842     0.0000   176.0000 </r>
       <r>   -13.1000     0.0000   176.0000 </r>
       <r>   -12.9157     0.0000   178.0000 </r>
       <r>   -12.7315   105.7480   187.2001 </r>
       <r>   -12.5473     0.0000   200.0000 </r>
       <r>   -12.3630     0.0000   200.0000 </r>
       <r>   -12.1788     0.0000   200.0000 </r>
       <r>   -11.9946     0.0000   204.0000 </r>
       <r>   -11.8104     0.0000   204.0000 </r>
       <r>   -11.6261     0.0000   204.0000 </r>
       <r>   -11.4419     0.0000   204.0000 </r>
       <r>   -11.2577     0.0000   204.0000 </r>
       <r>   -11.0734     0.0000   204.0000 </r>
       <r>   -10.8892     0.0000   204.0000 </r>
       <r>   -10.7050     0.0000   204.0000 </r>
       <r>   -10.5207     0.0000   204.0000 </r>
       <r>   -10.3365     0.0000   204.0000 </r>
       <r>   -10.1523     0.0000   204.0000 </r>
       <r>    -9.9680     0.0000   204.0000 </r>
       <r>    -9.7838     0.0000   204.0000 </r>
       <r>    -9.5996     0.0000   204.0000 </r>
       <r>    -9.4154     0.0000   204.0000 </r>
       <r>    -9.2311     9.9711   204.6439 </r>
       <r>    -9.0469    18.7150   207.3988 </r>
       <r>    -8.8627     8.1823   208.8467 </r>
       <r>    -8.6784    12.2973   211.6903 </r>
       <r>    -8.4942    25.4589   214.5574 </r>
       <r>    -8.3100    21.0303   219.8310 </r>
       <r>    -8.1257    24.6976   222.3756 </r>
       <r>    -7.9415    20.1009   227.3205 </r>
       <r>    -7.7573    21.5794   230.5669 </r>
       <r>    -7.5730    19.8513   234.1695 </r>
       <r>    -7.3888     0.0000   236.0000 </r>
       <r>    -7.2046     0.0000   236.0000 </r>
       <r>    -7.0203     0.0000   236.0000 </r>
       <r>    -6.8361     0.0000   236.0000 </r>
       <r>    -6.6519     0.0000   236.0000 </r>
       <r>    -6.4677     0.0000   236.0000 </r>
       <r>    -6.2834    10.9662   236.6308 </r>
       <r>    -6.0992    29.0448   240.3347 </r>
       <r>    -5.9150    21.6901   244.0554 </r>
       <r>    -5.7307    26.4753   248.5528 </r>
       <r>    -5.5465    21.0721   252.7078 </r>
       <r>    -5.3623    18.9451   256.6211 </r>
       <r>    -5.1780     9.1374   259.3375 </r>
       <r>    -4.9938     4.7738   260.3022 </r>
       <r>    -4.8096     7.6302   261.5875 </r>
       <r>    -4.6253    10.0938   263.1854 </r>
       <r>    -4.4411     6.3779   264.8538 </r>
       <r>    -4.2569     7.3919   266.0621 </r>
       <r>    -4.0726     4.8110   267.2287 </r>
       <r>    -3.8884     1.6535   267.8166 </r>
       <r>    -3.7042     0.3338   267.9892 </r>
       <r>    -3.5200     0.0000   268.0000 </r>
       <r>    -3.3357     0.0000   268.0000 </r>
       <r>    -3.1515     0.0000   268.0000 </r>
       <r>    -2.9673     0.0000   268.0000 </r>
       <r>    -2.7830     0.0000   268.0000 </r>
       <r>    -2.5988     0.0000   268.0000 </r>
       <r>    -2.4146     0.0000   268.0000 </r>
       <r>    -2.2303     0.0000   268.0000 </r>
       <r>    -2.0461     0.0000   268.0000 </r>
       <r>    -1.8619     0.0000   268.0000 </r>
       <r>    -1.6776     0.0000   268.0000 </r>
       <r>    -1.4934     0.0000   268.0000 </r>
       <r>    -1.3092     4.7433   268.2848 </r>
       <r>    -1.1250    11.1620   269.8591 </r>
       <r>    -0.9407    13.8671   272.1223 </r>
       <r>    -0.7565     8.9818   274.3233 </r>
       <r>    -0.5723     9.7802   275.7023 </r>
       <r>    -0.3880    21.0104   278.2027 </r>
       <r>    -0.2038    27.1093   282.3873 </r>
       <r>    -0.0196    40.7655   289.1851 </r>
       <r>     0.1647    22.2624   294.8598 </r>
       <r>     0.3489    33.2438   301.6731 </r>
       <r>     0.5331    55.7821   309.1001 </r>
       <r>     0.7174    28.5391   315.9613 </r>
       <r>     0.9016    45.9264   322.5000 </r>
       <r>     1.0858    54.1510   331.4989 </r>
       <r>     1.2701    66.3499   340.5096 </r>
       <r>     1.4543    45.6893   349.0692 </r>
       <r>     1.6385    44.0237   358.6124 </r>
       <r>     1.8227    47.5297   366.6231 </r>
       <r>     2.0070    38.7153   373.8783 </r>
       <r>     2.1912    46.1307   381.2944 </r>
       <r>     2.3754    54.6669   389.9553 </r>
       <r>     2.5597    51.9115   400.7383 </r>
       <r>     2.7439    65.0496   411.4764 </r>
       <r>     2.9281    73.6935   423.6543 </r>
       <r>     3.1124    53.5235   435.7470 </r>
       <r>     3.2966    35.2113   443.6849 </r>
       <r>     3.4808    46.6640   450.9714 </r>
       <r>     3.6651    17.7814   455.4716 </r>
       <r>     3.8493    10.6442   458.1242 </r>
       <r>     4.0335     5.0549   459.5706 </r>
       <r>     4.2178     0.1001   459.9992 </r>
       <r>     4.4020     0.0000   460.0000 </r>
       <r>     4.5862     0.0000   460.0000 </r>
       <r>     4.7704     0.0000   460.0000 </r>
       <r>     4.9547     0.0000   460.0000 </r>
       <r>     5.1389     0.9446   460.0438 </r>
       <r>     5.3231     4.6852   460.5455 </r>
       <r>     5.5074     8.6588   461.7746 </r>
       <r>     5.6916     8.4669   463.4953 </r>
       <r>     5.8758    16.9272   467.5783 </r>
       <r>     6.0601    12.2306   470.0854 </r>
       <r>     6.2443    11.7673   472.2349 </r>
       <r>     6.4285    13.6966   474.5800 </r>
       <r>     6.6128    15.5378   477.2774 </r>
       <r>     6.7970    17.3327   480.3004 </r>
       <r>     6.9812    20.5850   483.7209 </r>
       <r>     7.1654    28.9259   488.2181 </r>
       <r>     7.3497    43.4908   494.6915 </r>
       <r>     7.5339    25.4459   501.4139 </r>
       <r>     7.7181    42.8196   507.0910 </r>
       <r>     7.9024    51.3415   515.7960 </r>
       <r>     8.0866    24.4964   522.6821 </r>
       <r>     8.2708    18.8425   526.5066 </r>
       <r>     8.4551    21.6586   530.1514 </r>
       <r>     8.6393    25.0398   534.5461 </r>
       <r>     8.8235    47.6531   540.7702 </r>
       <r>     9.0078    27.6100   547.9257 </r>
       <r>     9.1920    15.2641   551.5562 </r>
       <r>     9.3762    14.0314   554.2177 </r>
       <r>     9.5605    13.4004   556.6882 </r>
       <r>     9.7447     5.6423   558.8473 </r>
       <r>     9.9289     2.7096   559.7783 </r>
       <r>    10.1131     0.1879   559.9958 </r>
       <r>    10.2974     0.0000   560.0000 </r>
       <r>    10.4816     0.0000   560.0000 </r>
       <r>    10.6658     0.0000   560.0000 </r>
       <r>    10.8501     0.0000   560.0000 </r>
       <r>    11.0343     0.0000   560.0000 </r>
       <r>    11.2185     0.0000   560.0000 </r>
       <r>    11.4028     0.0000   560.0000 </r>
       <r>    11.5870     0.0000   560.0000 </r>
       <r>    11.7712     0.0000   560.0000 </r>
       <r>    11.9555     0.0000   560.0000 </r>
       <r>    12.1397     0.0000   560.0000 </r>
       <r>    12.3239     0.0000   560.0000 </r>
       <r>    12.5081     0.0000   560.0000 </r>
       <r>    12.6924     0.0000   560.0000 </r>
      </set>
     </set>
    </array>
   </total>
  </dos>
 </calculation>
 <structure name="finalpos" >
  <crystal>
   <varray name="basis" >
    <v>      11.17850000       0.00000000       0.00000000 </v>
    <v>       0.00000000       9.57460000       0.00000000 </v>
    <v>       0.00000000       0.00000000      11.18240000 </v>
   </varray>
   <i name="volume">   1196.84853820 </i>
   <varray name="rec_basis" >
    <v>       0.08945744       0.00000000       0.00000000 </v>
    <v>       0.00000000       0.10444301       0.00000000 </v>
    <v>       0.00000000       0.00000000       0.08942624 </v>
   </varray>
  </crystal>
  <varray name="positions" >
   <v>       0.37539000       0.00017000       0.43687000 </v>
   <v>       0.37461000       0.00017000       0.18687000 </v>
   <v>       0.62539000       0.99984000       0.43687000 </v>
   <v>       0.87539000       0.00017000       0.43687000 </v>
   <v>       0.62461000       0.99984000       0.18687000 </v>
   <v>       0.87461000       0.00017000       0.18687000 </v>
   <v>       0.12461000       0.99984000       0.18687000 </v>
   <v>       0.12539000       0.99984000       0.93687000 </v>
   <v>       0.37461000       0.00017000       0.68687000 </v>
   <v>       0.62539000       0.99984000       0.93687000 </v>
   <v>       0.87461000       0.00017000       0.68687000 </v>
   <v>       0.00013000       0.29519000       0.06281000 </v>
   <v>       0.25013000       0.70481000       0.06281000 </v>
   <v>       0.24987000       0.29519000       0.31282000 </v>
   <v>       0.49987000       0.70481000       0.31282000 </v>
   <v>       0.50013000       0.29519000       0.06281000 </v>
   <v>       0.75013000       0.70481000       0.06281000 </v>
   <v>       0.74987000       0.29519000       0.31282000 </v>
   <v>       0.99987000       0.70481000       0.31282000 </v>
   <v>       0.00013000       0.29519000       0.56281000 </v>
   <v>       0.25013000       0.70481000       0.56281000 </v>
   <v>       0.24987000       0.29519000       0.81282000 </v>
   <v>       0.49987000       0.70481000       0.81282000 </v>
   <v>       0.50013000       0.29519000       0.56281000 </v>
   <v>       0.75013000       0.70481000       0.56281000 </v>
   <v>       0.74987000       0.29519000       0.81282000 </v>
   <v>       0.99987000       0.70481000       0.81282000 </v>
   <v>       0.25005000       0.32677000       0.06286000 </v>
   <v>       0.00005000       0.67323000       0.06286000 </v>
   <v>       0.49995000       0.32677000       0.31286000 </v>
   <v>       0.24995000       0.67323000       0.31286000 </v>
   <v>       0.75005000       0.32677000       0.06286000 </v>
   <v>       0.50005000       0.67323000       0.06286000 </v>
   <v>       0.99995000       0.32677000       0.31286000 </v>
   <v>       0.74995000       0.67323000       0.31286000 </v>
   <v>       0.25005000       0.32677000       0.56286000 </v>
   <v>       0.00005000       0.67323000       0.56286000 </v>
   <v>       0.49995000       0.32677000       0.81286000 </v>
   <v>       0.24995000       0.67323000       0.81286000 </v>
   <v>       0.75005000       0.32677000       0.56286000 </v>
   <v>       0.50005000       0.67323000       0.56286000 </v>
   <v>       0.99995000       0.32677000       0.81286000 </v>
   <v>       0.74995000       0.67323000       0.81286000 </v>
   <v>       0.49987000       0.07798000       0.06246000 </v>
   <v>       0.24987000       0.92202000       0.06246000 </v>
   <v>       0.25013000       0.07798000       0.31246000 </v>
   <v>       0.00013000       0.92202000       0.31246000 </v>
   <v>       0.99987000       0.07798000       0.06246000 </v>
   <v>       0.74987000       0.92202000       0.06246000 </v>
   <v>       0.75013000       0.07798000       0.31246000 </v>
   <v>       0.50013000       0.92202000       0.31246000 </v>
   <v>       0.49987000       0.07798000       0.56246000 </v>
   <v>       0.24987000       0.92202000       0.56246000 </v>
   <v>       0.25013000       0.07798000       0.81246000 </v>
   <v>       0.00013000       0.92202000       0.81246000 </v>
   <v>       0.99987000       0.07798000       0.56246000 </v>
   <v>       0.74987000       0.92202000       0.56246000 </v>
   <v>       0.75013000       0.07798000       0.81246000 </v>
   <v>       0.50013000       0.92202000       0.81246000 </v>
  </varray>
 </structure>
</modeling>
