<?xml version="1.0" encoding="ISO-8859-1"?>
<modeling>
 <generator>
  <i name="program" type="string">vasp </i>
  <i name="version" type="string">5.4.4.18Apr17-6-g9f103f2a35  </i>
  <i name="subversion" type="string">(build Jul 31 2017 11:33:29) complex            parallel </i>
  <i name="platform" type="string">LinuxIFC </i>
  <i name="date" type="string">2021 09 20 </i>
  <i name="time" type="string">19:41:23 </i>
 </generator>
 <incar>
  <i type="string" name="SYSTEM"> La2O2S</i>
  <i type="string" name="PREC">normal</i>
  <i type="int" name="NELMIN">     4</i>
  <i type="int" name="IBRION">     2</i>
  <i type="int" name="NFREE">    10</i>
  <i name="EDIFF">      0.00000100</i>
  <i name="EDIFFG">     -0.01000000</i>
  <i type="int" name="NSW">   200</i>
  <i type="int" name="ISIF">     3</i>
  <i name="ENCUT">    600.00000000</i>
  <i name="ENAUG">    900.00000000</i>
  <i type="int" name="ISMEAR">    -5</i>
  <i type="logical" name="LWAVE"> F  </i>
  <i type="logical" name="LCHARG"> F  </i>
  <v type="int" name="KPOINT_BSE">    -1     0     0     0</v>
 </incar>
 <structure name="primitive_cell" >
  <crystal>
   <varray name="basis" >
    <v>      11.17850000       0.00000000       0.00000000 </v>
    <v>       0.00000000       9.57460000       0.00000000 </v>
    <v>       0.00000000       0.00000000      11.18240000 </v>
   </varray>
   <i name="volume">   1196.84853820 </i>
   <varray name="rec_basis" >
    <v>       0.08945744       0.00000000       0.00000000 </v>
    <v>       0.00000000       0.10444301       0.00000000 </v>
    <v>       0.00000000       0.00000000       0.08942624 </v>
   </varray>
  </crystal>
  <varray name="positions" >
   <v>       0.37461000       0.00017000       0.18687000 </v>
   <v>       0.24987000      -0.07798000       0.06246000 </v>
   <v>       0.49987000       0.07798000       0.06246000 </v>
   <v>       0.25013000       0.07798000       0.31246000 </v>
   <v>      -0.49987000      -0.07798000       0.31246000 </v>
   <v>      -0.37539000      -0.00016000       0.18687000 </v>
   <v>       0.37539000       0.00017000      -0.06313000 </v>
   <v>       0.25013000      -0.29519000       0.06281000 </v>
   <v>      -0.49987000       0.29519000       0.06281000 </v>
   <v>       0.24987000       0.29519000       0.31282000 </v>
   <v>       0.49987000      -0.29519000       0.31282000 </v>
   <v>       0.25005000       0.32677000       0.06286000 </v>
   <v>      -0.49995000      -0.32677000       0.06286000 </v>
   <v>       0.24995000      -0.32677000       0.31286000 </v>
   <v>       0.49995000       0.32677000       0.31286000 </v>
   <v>       0.12539000      -0.00016000      -0.06313000 </v>
   <v>      -0.37461000      -0.00016000       0.43687000 </v>
   <v>       0.25013000       0.07798000      -0.18754000 </v>
   <v>      -0.00013000       0.07798000       0.06246000 </v>
   <v>       0.00013000      -0.07798000       0.31246000 </v>
   <v>      -0.49987000      -0.07798000      -0.18754000 </v>
   <v>      -0.25013000      -0.07798000       0.06246000 </v>
   <v>       0.24987000      -0.07798000      -0.43754000 </v>
   <v>      -0.24987000       0.07798000       0.31246000 </v>
   <v>       0.49987000       0.07798000      -0.43754000 </v>
   <v>       0.24987000       0.29519000      -0.18718000 </v>
   <v>       0.00013000       0.29519000       0.06281000 </v>
   <v>       0.49987000      -0.29519000      -0.18718000 </v>
   <v>      -0.00013000      -0.29519000       0.31282000 </v>
   <v>      -0.24987000      -0.29519000       0.06281000 </v>
   <v>      -0.25013000       0.29519000       0.31282000 </v>
   <v>       0.25013000      -0.29519000      -0.43719000 </v>
   <v>      -0.49987000       0.29519000      -0.43719000 </v>
   <v>       0.24995000      -0.32677000      -0.18714000 </v>
   <v>       0.49995000       0.32677000      -0.18714000 </v>
   <v>       0.00005000      -0.32677000       0.06286000 </v>
   <v>      -0.00005000       0.32677000       0.31286000 </v>
   <v>      -0.24995000       0.32677000       0.06286000 </v>
   <v>      -0.25005000      -0.32677000       0.31286000 </v>
   <v>       0.25005000       0.32677000      -0.43714000 </v>
   <v>      -0.49995000      -0.32677000      -0.43714000 </v>
   <v>      -0.12539000       0.00017000       0.18687000 </v>
   <v>       0.37461000       0.00017000      -0.31313000 </v>
   <v>       0.00013000      -0.07798000      -0.18754000 </v>
   <v>      -0.24987000       0.07798000      -0.18754000 </v>
   <v>      -0.00013000       0.07798000      -0.43754000 </v>
   <v>      -0.25013000      -0.07798000      -0.43754000 </v>
   <v>      -0.12461000       0.00017000       0.43687000 </v>
   <v>      -0.12461000       0.00017000      -0.06313000 </v>
   <v>       0.12461000      -0.00016000      -0.31313000 </v>
   <v>      -0.37539000      -0.00016000      -0.31313000 </v>
   <v>      -0.00013000      -0.29519000      -0.18718000 </v>
   <v>      -0.25013000       0.29519000      -0.18718000 </v>
   <v>       0.00013000       0.29519000      -0.43719000 </v>
   <v>      -0.24987000      -0.29519000      -0.43719000 </v>
   <v>      -0.00005000       0.32677000      -0.18714000 </v>
   <v>      -0.25005000      -0.32677000      -0.18714000 </v>
   <v>       0.00005000      -0.32677000      -0.43714000 </v>
   <v>      -0.24995000       0.32677000      -0.43714000 </v>
   <v>      -0.12539000       0.00017000      -0.31313000 </v>
  </varray>
 </structure>
 <varray name="primitive_index" >
  <v type="int" >        1 </v>
  <v type="int" >       46 </v>
  <v type="int" >       45 </v>
  <v type="int" >       47 </v>
  <v type="int" >       52 </v>
  <v type="int" >        9 </v>
  <v type="int" >        6 </v>
  <v type="int" >       14 </v>
  <v type="int" >       17 </v>
  <v type="int" >       15 </v>
  <v type="int" >       16 </v>
  <v type="int" >       29 </v>
  <v type="int" >       34 </v>
  <v type="int" >       32 </v>
  <v type="int" >       31 </v>
  <v type="int" >        5 </v>
  <v type="int" >        2 </v>
  <v type="int" >       55 </v>
  <v type="int" >       49 </v>
  <v type="int" >       48 </v>
  <v type="int" >       60 </v>
  <v type="int" >       50 </v>
  <v type="int" >       54 </v>
  <v type="int" >       51 </v>
  <v type="int" >       53 </v>
  <v type="int" >       23 </v>
  <v type="int" >       13 </v>
  <v type="int" >       24 </v>
  <v type="int" >       20 </v>
  <v type="int" >       18 </v>
  <v type="int" >       19 </v>
  <v type="int" >       22 </v>
  <v type="int" >       25 </v>
  <v type="int" >       40 </v>
  <v type="int" >       39 </v>
  <v type="int" >       30 </v>
  <v type="int" >       35 </v>
  <v type="int" >       33 </v>
  <v type="int" >       36 </v>
  <v type="int" >       37 </v>
  <v type="int" >       42 </v>
  <v type="int" >        4 </v>
  <v type="int" >        8 </v>
  <v type="int" >       56 </v>
  <v type="int" >       59 </v>
  <v type="int" >       57 </v>
  <v type="int" >       58 </v>
  <v type="int" >        3 </v>
  <v type="int" >       10 </v>
  <v type="int" >        7 </v>
  <v type="int" >       11 </v>
  <v type="int" >       28 </v>
  <v type="int" >       27 </v>
  <v type="int" >       21 </v>
  <v type="int" >       26 </v>
  <v type="int" >       43 </v>
  <v type="int" >       44 </v>
  <v type="int" >       38 </v>
  <v type="int" >       41 </v>
  <v type="int" >       12 </v>
 </varray>
 <kpoints>
  <generation param="Gamma">
   <v type="int" name="divisions">       2        2        2 </v>
   <v name="usershift">      0.00000000       0.00000000       0.00000000 </v>
   <v name="genvec1">      0.50000000       0.00000000       0.00000000 </v>
   <v name="genvec2">      0.00000000       0.50000000       0.00000000 </v>
   <v name="genvec3">      0.00000000       0.00000000       0.50000000 </v>
   <v name="shift">      0.00000000       0.00000000       0.00000000 </v>
  </generation>
  <varray name="kpointlist" >
   <v>       0.00000000       0.00000000       0.00000000 </v>
   <v>       0.50000000       0.00000000       0.00000000 </v>
   <v>       0.00000000       0.50000000       0.00000000 </v>
   <v>       0.50000000       0.50000000       0.00000000 </v>
   <v>       0.00000000       0.00000000       0.50000000 </v>
   <v>       0.50000000       0.00000000       0.50000000 </v>
   <v>       0.00000000       0.50000000       0.50000000 </v>
   <v>       0.50000000       0.50000000       0.50000000 </v>
  </varray>
  <varray name="weights" >
   <v>       0.12500000 </v>
   <v>       0.12500000 </v>
   <v>       0.12500000 </v>
   <v>       0.12500000 </v>
   <v>       0.12500000 </v>
   <v>       0.12500000 </v>
   <v>       0.12500000 </v>
   <v>       0.12500000 </v>
  </varray>
  <varray name="tetrahedronlist"  type="int" >
   <v type="int" >        2        1        2        4        5 </v>
   <v type="int" >        2        1        3        4        5 </v>
   <v type="int" >        2        3        4        5        7 </v>
   <v type="int" >        2        2        4        5        6 </v>
   <v type="int" >        2        4        5        6        8 </v>
   <v type="int" >        2        4        5        7        8 </v>
   <v type="int" >        2        1        2        3        6 </v>
   <v type="int" >        2        2        3        4        6 </v>
   <v type="int" >        2        3        4        6        8 </v>
   <v type="int" >        2        1        3        5        6 </v>
   <v type="int" >        2        3        5        6        7 </v>
   <v type="int" >        2        3        6        7        8 </v>
   <v type="int" >        2        2        3        4        7 </v>
   <v type="int" >        2        1        2        3        7 </v>
   <v type="int" >        2        1        2        5        7 </v>
   <v type="int" >        2        2        4        7        8 </v>
   <v type="int" >        2        2        6        7        8 </v>
   <v type="int" >        2        2        5        6        7 </v>
   <v type="int" >        2        1        3        4        8 </v>
   <v type="int" >        2        1        2        4        8 </v>
   <v type="int" >        2        1        2        6        8 </v>
   <v type="int" >        2        1        3        7        8 </v>
   <v type="int" >        2        1        5        7        8 </v>
   <v type="int" >        2        1        5        6        8 </v>
  </varray>
  <i name="volumeweight">      0.02083333 </i>
 </kpoints>
 <parameters>
  <separator name="general" >
   <i type="string" name="SYSTEM">La2O2S</i>
   <i type="logical" name="LCOMPAT"> F  </i>
  </separator>
  <separator name="electronic" >
   <i type="string" name="PREC">normal</i>
   <i name="ENMAX">    600.00000000</i>
   <i name="ENAUG">    900.00000000</i>
   <i name="EDIFF">      0.00000100</i>
   <i type="int" name="IALGO">    38</i>
   <i type="int" name="IWAVPR">    11</i>
   <i type="int" name="NBANDS">   280</i>
   <i name="NELECT">    464.00000000</i>
   <i type="int" name="TURBO">     0</i>
   <i type="int" name="IRESTART">     0</i>
   <i type="int" name="NREBOOT">     0</i>
   <i type="int" name="NMIN">     0</i>
   <i name="EREF">      0.00000000</i>
   <separator name="electronic smearing" >
    <i type="int" name="ISMEAR">    -5</i>
    <i name="SIGMA">      0.20000000</i>
    <i name="KSPACING">      0.50000000</i>
    <i type="logical" name="KGAMMA"> T  </i>
   </separator>
   <separator name="electronic projectors" >
    <i type="logical" name="LREAL"> F  </i>
    <v name="ROPT">      0.00000000      0.00000000      0.00000000      0.00000000      0.00000000</v>
    <i type="int" name="LMAXPAW">  -100</i>
    <i type="int" name="LMAXMIX">     2</i>
    <i type="logical" name="NLSPLINE"> F  </i>
   </separator>
   <separator name="electronic startup" >
    <i type="int" name="ISTART">     0</i>
    <i type="int" name="ICHARG">     2</i>
    <i type="int" name="INIWAV">     1</i>
   </separator>
   <separator name="electronic spin" >
    <i type="int" name="ISPIN">     1</i>
    <i type="logical" name="LNONCOLLINEAR"> F  </i>
    <v name="MAGMOM">      1.00000000      1.00000000      1.00000000      1.00000000      1.00000000      1.00000000      1.00000000      1.00000000      1.00000000      1.00000000      1.00000000      1.00000000      1.00000000      1.00000000      1.00000000      1.00000000      1.00000000      1.00000000      1.00000000      1.00000000
      1.00000000      1.00000000      1.00000000      1.00000000      1.00000000      1.00000000      1.00000000      1.00000000      1.00000000      1.00000000      1.00000000      1.00000000      1.00000000      1.00000000      1.00000000      1.00000000      1.00000000      1.00000000      1.00000000      1.00000000
      1.00000000      1.00000000      1.00000000      1.00000000      1.00000000      1.00000000      1.00000000      1.00000000      1.00000000      1.00000000      1.00000000      1.00000000      1.00000000      1.00000000      1.00000000      1.00000000      1.00000000      1.00000000      1.00000000      1.00000000
</v>
    <i name="NUPDOWN">     -1.00000000</i>
    <i type="logical" name="LSORBIT"> F  </i>
    <v name="SAXIS">      0.00000000      0.00000000      1.00000000</v>
    <i type="logical" name="LSPIRAL"> F  </i>
    <v name="QSPIRAL">      0.00000000      0.00000000      0.00000000</v>
    <i type="logical" name="LZEROZ"> F  </i>
   </separator>
   <separator name="electronic exchange-correlation" >
    <i type="logical" name="LASPH"> F  </i>
    <i type="logical" name="LMETAGGA"> F  </i>
   </separator>
   <separator name="electronic convergence" >
    <i type="int" name="NELM">    60</i>
    <i type="int" name="NELMDL">    -5</i>
    <i type="int" name="NELMIN">     4</i>
    <i name="ENINI">    600.00000000</i>
    <separator name="electronic convergence detail" >
     <i type="logical" name="LDIAG"> T  </i>
     <i type="logical" name="LSUBROT"> F  </i>
     <i name="WEIMIN">      0.00100000</i>
     <i name="EBREAK">      0.00000000</i>
     <i name="DEPER">      0.30000000</i>
     <i type="int" name="NRMM">     4</i>
     <i name="TIME">      0.40000000</i>
    </separator>
   </separator>
   <separator name="electronic mixer" >
    <i name="AMIX">      0.40000000</i>
    <i name="BMIX">      1.00000000</i>
    <i name="AMIN">      0.10000000</i>
    <i name="AMIX_MAG">      1.60000000</i>
    <i name="BMIX_MAG">      1.00000000</i>
    <separator name="electronic mixer details" >
     <i type="int" name="IMIX">     4</i>
     <i type="logical" name="MIXFIRST"> F  </i>
     <i type="int" name="MAXMIX">   -45</i>
     <i name="WC">    100.00000000</i>
     <i type="int" name="INIMIX">     1</i>
     <i type="int" name="MIXPRE">     1</i>
     <i type="int" name="MREMOVE">     5</i>
    </separator>
   </separator>
   <separator name="electronic dipolcorrection" >
    <i type="logical" name="LDIPOL"> F  </i>
    <i type="logical" name="LMONO"> F  </i>
    <i type="int" name="IDIPOL">     0</i>
    <i name="EPSILON">      1.00000000</i>
    <v name="DIPOL">   -100.00000000   -100.00000000   -100.00000000</v>
    <i name="EFIELD">      0.00000000</i>
   </separator>
  </separator>
  <separator name="grids" >
   <i type="int" name="NGX">    70</i>
   <i type="int" name="NGY">    60</i>
   <i type="int" name="NGZ">    70</i>
   <i type="int" name="NGXF">   140</i>
   <i type="int" name="NGYF">   120</i>
   <i type="int" name="NGZF">   140</i>
   <i type="logical" name="ADDGRID"> F  </i>
  </separator>
  <separator name="ionic" >
   <i type="int" name="NSW">   200</i>
   <i type="int" name="IBRION">     2</i>
   <i type="int" name="MDALGO">     0</i>
   <i type="int" name="ISIF">     3</i>
   <i name="PSTRESS">      0.00000000</i>
   <i name="EDIFFG">     -0.01000000</i>
   <i type="int" name="NFREE">    10</i>
   <i name="POTIM">      0.50000000</i>
   <i name="SMASS">     -3.00000000</i>
   <i name="SCALEE">      1.00000000</i>
  </separator>
  <separator name="ionic md" >
   <i name="TEBEG">      0.00010000</i>
   <i name="TEEND">      0.00010000</i>
   <i type="int" name="NBLOCK">     1</i>
   <i type="int" name="KBLOCK">   200</i>
   <i type="int" name="NPACO">   256</i>
   <i name="APACO">     16.00000000</i>
  </separator>
  <separator name="symmetry" >
   <i type="int" name="ISYM">     2</i>
   <i name="SYMPREC">      0.00001000</i>
  </separator>
  <separator name="dos" >
   <i type="int" name="LORBIT">     0</i>
   <v name="RWIGS">     -1.00000000     -1.00000000     -1.00000000     -1.00000000     -1.00000000</v>
   <i type="int" name="NEDOS">   301</i>
   <i name="EMIN">     10.00000000</i>
   <i name="EMAX">    -10.00000000</i>
   <i name="EFERMI">      0.00000000</i>
  </separator>
  <separator name="writing" >
   <i type="int" name="NWRITE">     2</i>
   <i type="logical" name="LWAVE"> F  </i>
   <i type="logical" name="LDOWNSAMPLE"> F  </i>
   <i type="logical" name="LCHARG"> F  </i>
   <i type="logical" name="LPARD"> F  </i>
   <i type="logical" name="LVTOT"> F  </i>
   <i type="logical" name="LVHAR"> F  </i>
   <i type="logical" name="LELF"> F  </i>
   <i type="logical" name="LOPTICS"> F  </i>
   <v name="STM">      0.00000000      0.00000000      0.00000000      0.00000000      0.00000000      0.00000000      0.00000000</v>
  </separator>
  <separator name="performance" >
   <i type="int" name="NPAR">    28</i>
   <i type="int" name="NSIM">     4</i>
   <i type="int" name="NBLK">    -1</i>
   <i type="logical" name="LPLANE"> T  </i>
   <i type="logical" name="LSCALAPACK"> T  </i>
   <i type="logical" name="LSCAAWARE"> F  </i>
   <i type="logical" name="LSCALU"> F  </i>
   <i type="logical" name="LASYNC"> F  </i>
   <i type="logical" name="LORBITALREAL"> F  </i>
  </separator>
  <separator name="miscellaneous" >
   <i type="int" name="IDIOT">     3</i>
   <i type="int" name="ISPECIAL">     0</i>
   <i type="logical" name="LMUSIC"> F  </i>
   <v name="POMASS">      7.01000000     24.30500000    208.98000000     32.06600000     16.00000000</v>
   <v name="DARWINR">      0.00000000      0.00000000      0.00000000      0.00000000      0.00000000</v>
   <v name="DARWINV">      1.00000000      1.00000000      1.00000000      1.00000000      1.00000000</v>
   <i type="logical" name="LCORR"> T  </i>
  </separator>
  <i type="logical" name="GGA_COMPAT"> T  </i>
  <i type="logical" name="LBERRY"> F  </i>
  <i type="int" name="ICORELEVEL">     0</i>
  <i type="logical" name="LDAU"> F  </i>
  <i type="int" name="I_CONSTRAINED_M">     0</i>
  <separator name="electronic exchange-correlation" >
   <i type="string" name="GGA">--</i>
   <i type="int" name="VOSKOWN">     0</i>
   <i type="logical" name="LHFCALC"> F  </i>
   <i type="string" name="PRECFOCK"></i>
   <i type="logical" name="LSYMGRAD"> F  </i>
   <i type="logical" name="LHFONE"> F  </i>
   <i type="logical" name="LRHFCALC"> F  </i>
   <i type="logical" name="LTHOMAS"> F  </i>
   <i type="logical" name="LMODELHF"> F  </i>
   <i name="ENCUT4O">     -1.00000000</i>
   <i type="int" name="EXXOEP">     0</i>
   <i type="int" name="FOURORBIT">     0</i>
   <i name="AEXX">      0.00000000</i>
   <i name="HFALPHA">      0.00000000</i>
   <i name="MCALPHA">      0.00000000</i>
   <i name="ALDAX">      1.00000000</i>
   <i name="AGGAX">      1.00000000</i>
   <i name="ALDAC">      1.00000000</i>
   <i name="AGGAC">      1.00000000</i>
   <i type="int" name="NKREDX">     1</i>
   <i type="int" name="NKREDY">     1</i>
   <i type="int" name="NKREDZ">     1</i>
   <i type="logical" name="SHIFTRED"> F  </i>
   <i type="logical" name="ODDONLY"> F  </i>
   <i type="logical" name="EVENONLY"> F  </i>
   <i type="int" name="LMAXFOCK">     0</i>
   <i type="int" name="NMAXFOCKAE">     0</i>
   <i type="logical" name="LFOCKAEDFT"> F  </i>
   <i name="HFSCREEN">      0.00000000</i>
   <i name="HFSCREENC">      0.00000000</i>
   <i type="int" name="NBANDSGWLOW">     0</i>
  </separator>
  <separator name="vdW DFT" >
   <i type="logical" name="LUSE_VDW"> F  </i>
   <i name="Zab_VDW">     -0.84910000</i>
   <i name="PARAM1">      0.12340000</i>
   <i name="PARAM2">      1.00000000</i>
   <i name="PARAM3">      0.00000000</i>
  </separator>
  <separator name="model GW" >
   <i type="int" name="MODEL_GW">     0</i>
   <i name="MODEL_EPS0">     11.96848538</i>
   <i name="MODEL_ALPHA">      1.00000000</i>
  </separator>
  <separator name="linear response parameters" >
   <i type="logical" name="LEPSILON"> F  </i>
   <i type="logical" name="LRPA"> F  </i>
   <i type="logical" name="LNABLA"> F  </i>
   <i type="logical" name="LVEL"> F  </i>
   <i type="int" name="KINTER">     0</i>
   <i name="CSHIFT">      0.10000000</i>
   <i name="OMEGAMAX">     -1.00000000</i>
   <i name="DEG_THRESHOLD">      0.00200000</i>
   <i name="RTIME">     -0.10000000</i>
   <i name="WPLASMAI">      0.00000000</i>
   <v name="DFIELD">      0.00000000      0.00000000      0.00000000</v>
   <v name="WPLASMA">      0.00000000      0.00000000      0.00000000      0.00000000      0.00000000      0.00000000      0.00000000      0.00000000      0.00000000</v>
  </separator>
  <separator name="orbital magnetization" >
   <i type="logical" name="NUCIND"> F  </i>
   <v name="MAGPOS">      0.00000000      0.00000000      0.00000000</v>
   <i type="logical" name="LNICSALL"> T  </i>
   <i type="logical" name="ORBITALMAG"> F  </i>
   <i type="logical" name="LMAGBLOCH"> F  </i>
   <i type="logical" name="LCHIMAG"> F  </i>
   <i type="logical" name="LGAUGE"> T  </i>
   <i type="int" name="MAGATOM">     0</i>
   <v name="MAGDIPOL">      0.00000000      0.00000000      0.00000000</v>
   <v name="AVECCONST">      0.00000000      0.00000000      0.00000000</v>
  </separator>
  <separator name="response functions" >
   <i type="logical" name="LADDER"> F  </i>
   <i type="logical" name="LRPAFORCE"> F  </i>
   <i type="logical" name="LFXC"> F  </i>
   <i type="logical" name="LHARTREE"> T  </i>
   <i type="int" name="IBSE">     0</i>
   <v type="int" name="KPOINT">    -1     0     0     0</v>
   <i type="logical" name="LTCTE"> F  </i>
   <i type="logical" name="LTETE"> F  </i>
   <i type="logical" name="LTRIPLET"> F  </i>
   <i type="logical" name="LFXCEPS"> F  </i>
   <i type="logical" name="LFXHEG"> F  </i>
   <i type="int" name="NATURALO">     2</i>
   <i type="logical" name="L2ORDER"> F  </i>
   <i type="logical" name="LMP2LT"> F  </i>
   <i type="logical" name="LUSEW"> F  </i>
   <i name="ENCUTGW">     -2.00000000</i>
   <i name="ENCUTGWSOFT">     -2.00000000</i>
   <i name="ENCUTLF">     -1.00000000</i>
   <i type="int" name="LMAXMP2">    -1</i>
   <i name="SCISSOR">      0.00000000</i>
   <i type="int" name="NOMEGA">     0</i>
   <i type="int" name="NOMEGAR">     0</i>
   <i type="int" name="NBANDSGW">    -1</i>
   <i type="int" name="NBANDSO">    -1</i>
   <i type="int" name="NBANDSV">    -1</i>
   <i type="int" name="NELM">     1</i>
   <i type="int" name="NELMHF">     1</i>
   <i type="int" name="DIM">     3</i>
   <i type="int" name="ANTIRES">     0</i>
   <i name="OMEGAMAX">    -30.00000000</i>
   <i name="OMEGAMIN">    -30.00000000</i>
   <i name="OMEGATL">   -200.00000000</i>
   <i type="int" name="OMEGAGRID">   140</i>
   <i name="CSHIFT">     -0.10000000</i>
   <i type="logical" name="SELFENERGY"> F  </i>
   <i type="logical" name="LSPECTRAL"> F  </i>
   <i type="logical" name="LSPECTRALGW"> F  </i>
   <i type="logical" name="LSINGLES"> F  </i>
   <i type="logical" name="LFERMIGW"> F  </i>
   <i type="logical" name="ODDONLYGW"> F  </i>
   <i type="logical" name="EVENONLYGW"> F  </i>
   <i type="int" name="NKREDLFX">     1</i>
   <i type="int" name="NKREDLFY">     1</i>
   <i type="int" name="NKREDLFZ">     1</i>
   <i type="int" name="MAXMEM">  2800</i>
   <i type="int" name="TELESCOPE">     0</i>
   <i type="int" name="TAUPAR">     1</i>
   <i type="int" name="OMEGAPAR">    -1</i>
   <i name="LAMBDA">      1.00000000</i>
  </separator>
  <separator name="External order field" >
   <i name="OFIELD_KAPPA">      0.00000000</i>
   <v name="OFIELD_K">      0.00000000      0.00000000      0.00000000</v>
   <i name="OFIELD_Q6_NEAR">      0.00000000</i>
   <i name="OFIELD_Q6_FAR">      0.00000000</i>
   <i name="OFIELD_A">      0.00000000</i>
  </separator>
 </parameters>
 <atominfo>
  <atoms>      60 </atoms>
  <types>       5 </types>
  <array name="atoms" >
   <dimension dim="1">ion</dimension>
   <field type="string">element</field>
   <field type="int">atomtype</field>
   <set>
    <rc><c>Li</c><c>   1</c></rc>
    <rc><c>Li</c><c>   1</c></rc>
    <rc><c>Li</c><c>   1</c></rc>
    <rc><c>Li</c><c>   1</c></rc>
    <rc><c>Li</c><c>   1</c></rc>
    <rc><c>Li</c><c>   1</c></rc>
    <rc><c>Li</c><c>   1</c></rc>
    <rc><c>Li</c><c>   1</c></rc>
    <rc><c>Mg</c><c>   2</c></rc>
    <rc><c>Mg</c><c>   2</c></rc>
    <rc><c>Mg</c><c>   2</c></rc>
    <rc><c>Mg</c><c>   2</c></rc>
    <rc><c>Bi</c><c>   3</c></rc>
    <rc><c>Bi</c><c>   3</c></rc>
    <rc><c>Bi</c><c>   3</c></rc>
    <rc><c>Bi</c><c>   3</c></rc>
    <rc><c>Bi</c><c>   3</c></rc>
    <rc><c>Bi</c><c>   3</c></rc>
    <rc><c>Bi</c><c>   3</c></rc>
    <rc><c>Bi</c><c>   3</c></rc>
    <rc><c>Bi</c><c>   3</c></rc>
    <rc><c>Bi</c><c>   3</c></rc>
    <rc><c>Bi</c><c>   3</c></rc>
    <rc><c>Bi</c><c>   3</c></rc>
    <rc><c>Bi</c><c>   3</c></rc>
    <rc><c>Bi</c><c>   3</c></rc>
    <rc><c>Bi</c><c>   3</c></rc>
    <rc><c>Bi</c><c>   3</c></rc>
    <rc><c>S </c><c>   4</c></rc>
    <rc><c>S </c><c>   4</c></rc>
    <rc><c>S </c><c>   4</c></rc>
    <rc><c>S </c><c>   4</c></rc>
    <rc><c>S </c><c>   4</c></rc>
    <rc><c>S </c><c>   4</c></rc>
    <rc><c>S </c><c>   4</c></rc>
    <rc><c>S </c><c>   4</c></rc>
    <rc><c>S </c><c>   4</c></rc>
    <rc><c>S </c><c>   4</c></rc>
    <rc><c>S </c><c>   4</c></rc>
    <rc><c>S </c><c>   4</c></rc>
    <rc><c>S </c><c>   4</c></rc>
    <rc><c>S </c><c>   4</c></rc>
    <rc><c>S </c><c>   4</c></rc>
    <rc><c>S </c><c>   4</c></rc>
    <rc><c>O </c><c>   5</c></rc>
    <rc><c>O </c><c>   5</c></rc>
    <rc><c>O </c><c>   5</c></rc>
    <rc><c>O </c><c>   5</c></rc>
    <rc><c>O </c><c>   5</c></rc>
    <rc><c>O </c><c>   5</c></rc>
    <rc><c>O </c><c>   5</c></rc>
    <rc><c>O </c><c>   5</c></rc>
    <rc><c>O </c><c>   5</c></rc>
    <rc><c>O </c><c>   5</c></rc>
    <rc><c>O </c><c>   5</c></rc>
    <rc><c>O </c><c>   5</c></rc>
    <rc><c>O </c><c>   5</c></rc>
    <rc><c>O </c><c>   5</c></rc>
    <rc><c>O </c><c>   5</c></rc>
    <rc><c>O </c><c>   5</c></rc>
   </set>
  </array>
  <array name="atomtypes" >
   <dimension dim="1">type</dimension>
   <field type="int">atomspertype</field>
   <field type="string">element</field>
   <field>mass</field>
   <field>valence</field>
   <field type="string">pseudopotential</field>
   <set>
    <rc><c>   8</c><c>Li</c><c>      7.01000000</c><c>      3.00000000</c><c>  PAW_PBE Li_sv 10Sep2004               </c></rc>
    <rc><c>   4</c><c>Mg</c><c>     24.30500000</c><c>      2.00000000</c><c>  PAW_PBE Mg 13Apr2007                  </c></rc>
    <rc><c>  16</c><c>Bi</c><c>    208.98000000</c><c>     15.00000000</c><c>  PAW_PBE Bi_d 06Sep2000                </c></rc>
    <rc><c>  16</c><c>S </c><c>     32.06600000</c><c>      6.00000000</c><c>  PAW_PBE S 06Sep2000                   </c></rc>
    <rc><c>  16</c><c>O </c><c>     16.00000000</c><c>      6.00000000</c><c>  PAW_PBE O 08Apr2002                   </c></rc>
   </set>
  </array>
 </atominfo>
 <structure name="initialpos" >
  <crystal>
   <varray name="basis" >
    <v>      11.17850000       0.00000000       0.00000000 </v>
    <v>       0.00000000       9.57460000       0.00000000 </v>
    <v>       0.00000000       0.00000000      11.18240000 </v>
   </varray>
   <i name="volume">   1196.84853820 </i>
   <varray name="rec_basis" >
    <v>       0.08945744       0.00000000       0.00000000 </v>
    <v>       0.00000000       0.10444301       0.00000000 </v>
    <v>       0.00000000       0.00000000       0.08942624 </v>
   </varray>
  </crystal>
  <varray name="positions" >
   <v>       0.37461000       0.00017000       0.18687000 </v>
   <v>       0.62539000       0.99984000       0.43687000 </v>
   <v>       0.87539000       0.00017000       0.43687000 </v>
   <v>       0.87461000       0.00017000       0.18687000 </v>
   <v>       0.12539000       0.99984000       0.93687000 </v>
   <v>       0.37539000       0.00017000       0.93687000 </v>
   <v>       0.12461000       0.99984000       0.68687000 </v>
   <v>       0.37461000       0.00017000       0.68687000 </v>
   <v>       0.62461000       0.99984000       0.18687000 </v>
   <v>       0.87539000       0.00017000       0.93687000 </v>
   <v>       0.62461000       0.99984000       0.68687000 </v>
   <v>       0.87461000       0.00017000       0.68687000 </v>
   <v>       0.00013000       0.29519000       0.06281000 </v>
   <v>       0.25013000       0.70481000       0.06281000 </v>
   <v>       0.24987000       0.29519000       0.31282000 </v>
   <v>       0.49987000       0.70481000       0.31282000 </v>
   <v>       0.50013000       0.29519000       0.06281000 </v>
   <v>       0.75013000       0.70481000       0.06281000 </v>
   <v>       0.74987000       0.29519000       0.31282000 </v>
   <v>       0.99987000       0.70481000       0.31282000 </v>
   <v>       0.00013000       0.29519000       0.56281000 </v>
   <v>       0.25013000       0.70481000       0.56281000 </v>
   <v>       0.24987000       0.29519000       0.81282000 </v>
   <v>       0.49987000       0.70481000       0.81282000 </v>
   <v>       0.50013000       0.29519000       0.56281000 </v>
   <v>       0.75013000       0.70481000       0.56281000 </v>
   <v>       0.74987000       0.29519000       0.81282000 </v>
   <v>       0.99987000       0.70481000       0.81282000 </v>
   <v>       0.25005000       0.32677000       0.06286000 </v>
   <v>       0.00005000       0.67323000       0.06286000 </v>
   <v>       0.49995000       0.32677000       0.31286000 </v>
   <v>       0.24995000       0.67323000       0.31286000 </v>
   <v>       0.75005000       0.32677000       0.06286000 </v>
   <v>       0.50005000       0.67323000       0.06286000 </v>
   <v>       0.99995000       0.32677000       0.31286000 </v>
   <v>       0.74995000       0.67323000       0.31286000 </v>
   <v>       0.25005000       0.32677000       0.56286000 </v>
   <v>       0.00005000       0.67323000       0.56286000 </v>
   <v>       0.49995000       0.32677000       0.81286000 </v>
   <v>       0.24995000       0.67323000       0.81286000 </v>
   <v>       0.75005000       0.32677000       0.56286000 </v>
   <v>       0.50005000       0.67323000       0.56286000 </v>
   <v>       0.99995000       0.32677000       0.81286000 </v>
   <v>       0.74995000       0.67323000       0.81286000 </v>
   <v>       0.49987000       0.07798000       0.06246000 </v>
   <v>       0.24987000       0.92202000       0.06246000 </v>
   <v>       0.25013000       0.07798000       0.31246000 </v>
   <v>       0.00013000       0.92202000       0.31246000 </v>
   <v>       0.99987000       0.07798000       0.06246000 </v>
   <v>       0.74987000       0.92202000       0.06246000 </v>
   <v>       0.75013000       0.07798000       0.31246000 </v>
   <v>       0.50013000       0.92202000       0.31246000 </v>
   <v>       0.49987000       0.07798000       0.56246000 </v>
   <v>       0.24987000       0.92202000       0.56246000 </v>
   <v>       0.25013000       0.07798000       0.81246000 </v>
   <v>       0.00013000       0.92202000       0.81246000 </v>
   <v>       0.99987000       0.07798000       0.56246000 </v>
   <v>       0.74987000       0.92202000       0.56246000 </v>
   <v>       0.75013000       0.07798000       0.81246000 </v>
   <v>       0.50013000       0.92202000       0.81246000 </v>
  </varray>
 </structure>
 <calculation>
  <scstep>
   <time name="dav">   59.78   60.05</time>
   <time name="total">   59.87   60.19</time>
   <energy>
    <i name="alphaZ">   1067.11773629 </i>
    <i name="ewald"> -30648.85374042 </i>
    <i name="hartreedc"> -12703.32061486 </i>
    <i name="XCdc">   1321.21151547 </i>
    <i name="pawpsdc">  36729.48549953 </i>
    <i name="pawaedc"> -36149.63912807 </i>
    <i name="eentropy">      0.00000000 </i>
    <i name="bandstr">   1836.30779872 </i>
    <i name="atom">  44408.54722957 </i>
    <i name="e_fr_energy">   5860.85629623 </i>
    <i name="e_wo_entrp">   5860.85629623 </i>
    <i name="e_0_energy">   5860.85629623 </i>
   </energy>
  </scstep>
  <scstep>
   <time name="dav">   61.08   61.09</time>
   <time name="total">   61.09   61.10</time>
   <energy>
    <i name="e_fr_energy">    780.76354582 </i>
    <i name="e_wo_entrp">    780.76354582 </i>
    <i name="e_0_energy">    780.76354582 </i>
   </energy>
  </scstep>
  <scstep>
   <time name="dav">   70.27   70.49</time>
   <time name="total">   70.27   70.49</time>
   <energy>
    <i name="e_fr_energy">   -243.23477400 </i>
    <i name="e_wo_entrp">   -243.23477400 </i>
    <i name="e_0_energy">   -243.23477400 </i>
   </energy>
  </scstep>
  <scstep>
   <time name="dav">   71.75   72.09</time>
   <time name="total">   71.75   72.09</time>
   <energy>
    <i name="e_fr_energy">   -338.74733984 </i>
    <i name="e_wo_entrp">   -338.74733984 </i>
    <i name="e_0_energy">   -338.74733984 </i>
   </energy>
  </scstep>
  <scstep>
   <time name="dav">   96.95   97.16</time>
   <time name="total">   97.66   97.87</time>
   <energy>
    <i name="e_fr_energy">   -347.18989191 </i>
    <i name="e_wo_entrp">   -347.18989191 </i>
    <i name="e_0_energy">   -347.18989191 </i>
   </energy>
  </scstep>
  <scstep>
   <time name="dav">   84.83   84.93</time>
   <time name="total">   85.61   85.72</time>
   <energy>
    <i name="e_fr_energy">   -289.90230704 </i>
    <i name="e_wo_entrp">   -289.90230704 </i>
    <i name="e_0_energy">   -289.90230704 </i>
   </energy>
  </scstep>
  <scstep>
   <time name="dav">   64.82   65.18</time>
   <time name="total">   65.69   66.06</time>
   <energy>
    <i name="e_fr_energy">   -292.29408415 </i>
    <i name="e_wo_entrp">   -292.29408415 </i>
    <i name="e_0_energy">   -292.29408415 </i>
   </energy>
  </scstep>
  <scstep>
   <time name="dav">   85.48   86.01</time>
   <time name="total">   86.26   86.79</time>
   <energy>
    <i name="e_fr_energy">   -290.84036098 </i>
    <i name="e_wo_entrp">   -290.84036098 </i>
    <i name="e_0_energy">   -290.84036098 </i>
   </energy>
  </scstep>
  <scstep>
   <time name="dav">   67.05   67.22</time>
   <time name="total">   67.84   68.01</time>
   <energy>
    <i name="e_fr_energy">   -290.07757156 </i>
    <i name="e_wo_entrp">   -290.07757156 </i>
    <i name="e_0_energy">   -290.07757156 </i>
   </energy>
  </scstep>
  <scstep>
   <time name="dav">   79.60   79.72</time>
   <time name="total">   80.38   80.50</time>
   <energy>
    <i name="e_fr_energy">   -290.03084171 </i>
    <i name="e_wo_entrp">   -290.03084171 </i>
    <i name="e_0_energy">   -290.03084171 </i>
   </energy>
  </scstep>
  <scstep>
   <time name="dav">   69.33   69.46</time>
   <time name="total">   70.12   70.26</time>
   <energy>
    <i name="e_fr_energy">   -290.00143384 </i>
    <i name="e_wo_entrp">   -290.00143384 </i>
    <i name="e_0_energy">   -290.00143384 </i>
   </energy>
  </scstep>
  <scstep>
   <time name="dav">   73.99   73.98</time>
   <time name="total">   74.82   74.82</time>
   <energy>
    <i name="e_fr_energy">   -290.00273765 </i>
    <i name="e_wo_entrp">   -290.00273765 </i>
    <i name="e_0_energy">   -290.00273765 </i>
   </energy>
  </scstep>
  <scstep>
   <time name="dav">   77.68   77.68</time>
   <time name="total">   78.46   78.47</time>
   <energy>
    <i name="e_fr_energy">   -290.00461753 </i>
    <i name="e_wo_entrp">   -290.00461753 </i>
    <i name="e_0_energy">   -290.00461753 </i>
   </energy>
  </scstep>
  <scstep>
   <time name="dav">   81.93   81.90</time>
   <time name="total">   82.71   82.68</time>
   <energy>
    <i name="e_fr_energy">   -290.00403609 </i>
    <i name="e_wo_entrp">   -290.00403609 </i>
    <i name="e_0_energy">   -290.00403609 </i>
   </energy>
  </scstep>
  <scstep>
   <time name="dav">   67.40   67.39</time>
   <time name="total">   68.20   68.19</time>
   <energy>
    <i name="e_fr_energy">   -290.00429181 </i>
    <i name="e_wo_entrp">   -290.00429181 </i>
    <i name="e_0_energy">   -290.00429181 </i>
   </energy>
  </scstep>
  <scstep>
   <time name="dav">   77.14   77.72</time>
   <time name="total">   77.92   78.51</time>
   <energy>
    <i name="e_fr_energy">   -290.00433252 </i>
    <i name="e_wo_entrp">   -290.00433252 </i>
    <i name="e_0_energy">   -290.00433252 </i>
   </energy>
  </scstep>
  <scstep>
   <time name="dav">   77.74   78.36</time>
   <time name="total">   78.52   79.15</time>
   <energy>
    <i name="e_fr_energy">   -290.00435517 </i>
    <i name="e_wo_entrp">   -290.00435517 </i>
    <i name="e_0_energy">   -290.00435517 </i>
   </energy>
  </scstep>
  <scstep>
   <time name="dav">   74.23   74.49</time>
   <time name="total">   75.02   75.27</time>
   <energy>
    <i name="e_fr_energy">   -290.00436106 </i>
    <i name="e_wo_entrp">   -290.00436106 </i>
    <i name="e_0_energy">   -290.00436106 </i>
   </energy>
  </scstep>
  <scstep>
   <time name="dav">   63.76   63.81</time>
   <time name="total">   64.54   64.59</time>
   <energy>
    <i name="e_fr_energy">   -290.00436325 </i>
    <i name="e_wo_entrp">   -290.00436325 </i>
    <i name="e_0_energy">   -290.00436325 </i>
   </energy>
  </scstep>
  <scstep>
   <time name="dav">   60.72   60.82</time>
   <time name="total">   61.51   61.60</time>
   <energy>
    <i name="e_fr_energy">   -290.00436464 </i>
    <i name="e_wo_entrp">   -290.00436464 </i>
    <i name="e_0_energy">   -290.00436464 </i>
   </energy>
  </scstep>
  <scstep>
   <time name="dav">   52.98   53.03</time>
   <time name="total">   53.04   53.10</time>
   <energy>
    <i name="alphaZ">   1067.11773629 </i>
    <i name="ewald"> -30648.85374042 </i>
    <i name="hartreedc"> -12930.90142946 </i>
    <i name="XCdc">   1344.80589942 </i>
    <i name="pawpsdc">  43759.88287798 </i>
    <i name="pawaedc"> -43154.73149830 </i>
    <i name="eentropy">      0.00000000 </i>
    <i name="bandstr">  -4135.87144015 </i>
    <i name="atom">  44408.54722957 </i>
    <i name="e_fr_energy">   -290.00436506 </i>
    <i name="e_wo_entrp">   -290.00436506 </i>
    <i name="e_0_energy">   -290.00436506 </i>
   </energy>
  </scstep>
  <structure>
   <crystal>
    <varray name="basis" >
     <v>      11.17850000       0.00000000       0.00000000 </v>
     <v>       0.00000000       9.57460000       0.00000000 </v>
     <v>       0.00000000       0.00000000      11.18240000 </v>
    </varray>
    <i name="volume">   1196.84853820 </i>
    <varray name="rec_basis" >
     <v>       0.08945744       0.00000000       0.00000000 </v>
     <v>       0.00000000       0.10444301       0.00000000 </v>
     <v>       0.00000000       0.00000000       0.08942624 </v>
    </varray>
   </crystal>
   <varray name="positions" >
    <v>       0.37461000       0.00017000       0.18687000 </v>
    <v>       0.62539000       0.99984000       0.43687000 </v>
    <v>       0.87539000       0.00017000       0.43687000 </v>
    <v>       0.87461000       0.00017000       0.18687000 </v>
    <v>       0.12539000       0.99984000       0.93687000 </v>
    <v>       0.37539000       0.00017000       0.93687000 </v>
    <v>       0.12461000       0.99984000       0.68687000 </v>
    <v>       0.37461000       0.00017000       0.68687000 </v>
    <v>       0.62461000       0.99984000       0.18687000 </v>
    <v>       0.87539000       0.00017000       0.93687000 </v>
    <v>       0.62461000       0.99984000       0.68687000 </v>
    <v>       0.87461000       0.00017000       0.68687000 </v>
    <v>       0.00013000       0.29519000       0.06281000 </v>
    <v>       0.25013000       0.70481000       0.06281000 </v>
    <v>       0.24987000       0.29519000       0.31282000 </v>
    <v>       0.49987000       0.70481000       0.31282000 </v>
    <v>       0.50013000       0.29519000       0.06281000 </v>
    <v>       0.75013000       0.70481000       0.06281000 </v>
    <v>       0.74987000       0.29519000       0.31282000 </v>
    <v>       0.99987000       0.70481000       0.31282000 </v>
    <v>       0.00013000       0.29519000       0.56281000 </v>
    <v>       0.25013000       0.70481000       0.56281000 </v>
    <v>       0.24987000       0.29519000       0.81282000 </v>
    <v>       0.49987000       0.70481000       0.81282000 </v>
    <v>       0.50013000       0.29519000       0.56281000 </v>
    <v>       0.75013000       0.70481000       0.56281000 </v>
    <v>       0.74987000       0.29519000       0.81282000 </v>
    <v>       0.99987000       0.70481000       0.81282000 </v>
    <v>       0.25005000       0.32677000       0.06286000 </v>
    <v>       0.00005000       0.67323000       0.06286000 </v>
    <v>       0.49995000       0.32677000       0.31286000 </v>
    <v>       0.24995000       0.67323000       0.31286000 </v>
    <v>       0.75005000       0.32677000       0.06286000 </v>
    <v>       0.50005000       0.67323000       0.06286000 </v>
    <v>       0.99995000       0.32677000       0.31286000 </v>
    <v>       0.74995000       0.67323000       0.31286000 </v>
    <v>       0.25005000       0.32677000       0.56286000 </v>
    <v>       0.00005000       0.67323000       0.56286000 </v>
    <v>       0.49995000       0.32677000       0.81286000 </v>
    <v>       0.24995000       0.67323000       0.81286000 </v>
    <v>       0.75005000       0.32677000       0.56286000 </v>
    <v>       0.50005000       0.67323000       0.56286000 </v>
    <v>       0.99995000       0.32677000       0.81286000 </v>
    <v>       0.74995000       0.67323000       0.81286000 </v>
    <v>       0.49987000       0.07798000       0.06246000 </v>
    <v>       0.24987000       0.92202000       0.06246000 </v>
    <v>       0.25013000       0.07798000       0.31246000 </v>
    <v>       0.00013000       0.92202000       0.31246000 </v>
    <v>       0.99987000       0.07798000       0.06246000 </v>
    <v>       0.74987000       0.92202000       0.06246000 </v>
    <v>       0.75013000       0.07798000       0.31246000 </v>
    <v>       0.50013000       0.92202000       0.31246000 </v>
    <v>       0.49987000       0.07798000       0.56246000 </v>
    <v>       0.24987000       0.92202000       0.56246000 </v>
    <v>       0.25013000       0.07798000       0.81246000 </v>
    <v>       0.00013000       0.92202000       0.81246000 </v>
    <v>       0.99987000       0.07798000       0.56246000 </v>
    <v>       0.74987000       0.92202000       0.56246000 </v>
    <v>       0.75013000       0.07798000       0.81246000 </v>
    <v>       0.50013000       0.92202000       0.81246000 </v>
   </varray>
  </structure>
  <varray name="forces" >
   <v>      -0.99116371       0.07452494       0.49663327 </v>
   <v>      -0.70111548       0.06856636      -0.16459540 </v>
   <v>       0.90382094      -0.04824975      -0.71714302 </v>
   <v>       1.04219893      -0.11714930       0.51933958 </v>
   <v>       0.68547192       0.07041052       0.65427114 </v>
   <v>       0.07519386      -0.05834937       0.23053224 </v>
   <v>       0.85185025       0.02067970      -0.77923730 </v>
   <v>      -0.55352000      -0.11526024      -0.51727588 </v>
   <v>      -0.56996193       0.01417517      -0.44512487 </v>
   <v>      -0.27934109       0.09717275       1.40570120 </v>
   <v>      -1.60569930      -0.00894434       0.53121057 </v>
   <v>       1.17652963       0.21157933      -1.05974291 </v>
   <v>       0.72343961       0.13752577       0.68480848 </v>
   <v>      -0.11318052       0.96293798       0.51373175 </v>
   <v>      -0.17285357      -2.62199870       0.12359132 </v>
   <v>      -0.82081796      -0.09182875       0.16949505 </v>
   <v>      -0.50437592       0.01466357       0.09595345 </v>
   <v>      -0.12931034      -1.04344595       0.25053414 </v>
   <v>       0.19230967       1.17517998       0.00833691 </v>
   <v>       0.78198322       1.87146953      -0.01411837 </v>
   <v>       0.81482788       0.18358910      -0.68193116 </v>
   <v>      -0.00567713       1.88650933      -0.59081665 </v>
   <v>       0.11697059       0.12587432      -0.04375610 </v>
   <v>      -0.50866913      -0.05949116       0.18658454 </v>
   <v>      -0.83160362       0.13348820      -0.46651900 </v>
   <v>       0.00644368      -2.16839107      -0.54441888 </v>
   <v>      -0.34355599       2.08327387       0.26834877 </v>
   <v>       0.77234599      -2.13795669      -0.01184124 </v>
   <v>      -0.00160228       0.23929327      -0.45954976 </v>
   <v>      -0.44046530      -0.08229229      -0.55643109 </v>
   <v>       0.63066505       0.15337171      -0.04587220 </v>
   <v>       0.23949255      -0.24192416      -0.12359484 </v>
   <v>       0.02915717      -0.01121828      -0.19898173 </v>
   <v>       0.41587743      -0.14493665      -0.07519741 </v>
   <v>      -0.60027212       0.15365837       0.01810568 </v>
   <v>      -0.23705264      -0.12951950       0.03078284 </v>
   <v>      -0.02268640       0.19358352       0.45301863 </v>
   <v>      -0.61998708      -0.06418968       0.54855065 </v>
   <v>       0.39612040       0.07192336      -0.07717509 </v>
   <v>      -0.16524704      -0.24713631       0.10942115 </v>
   <v>       0.00676876      -0.03983888       0.30989043 </v>
   <v>       0.62425439      -0.09682708       0.19551370 </v>
   <v>      -0.44500492      -0.00537761      -0.00728185 </v>
   <v>       0.19737131       0.20457477      -0.13534030 </v>
   <v>       0.21826223       0.04433627       0.98226140 </v>
   <v>       0.57975588      -0.83539110      -0.87756776 </v>
   <v>       0.58803383       2.25602839      -0.53682227 </v>
   <v>      -1.51589939      -1.45778459       0.01408213 </v>
   <v>      -1.38255148      -0.25830415      -1.46701306 </v>
   <v>       0.67209887       0.82380956       0.37009929 </v>
   <v>      -0.59902765      -0.92825949      -0.42417368 </v>
   <v>       1.49187861       0.10499646      -1.03632221 </v>
   <v>       1.55045854      -0.21423211       1.15811572 </v>
   <v>      -0.01923987      -1.53218295       1.36628031 </v>
   <v>      -0.17019396      -0.04352367       0.05515773 </v>
   <v>      -1.35916316       1.71862073      -0.02632953 </v>
   <v>      -1.52414017      -0.31801994       1.44556685 </v>
   <v>       0.01138897       1.76111822       1.18011263 </v>
   <v>       1.18590136      -1.82440100      -1.15144018 </v>
   <v>       0.25250761       0.08948974      -1.14041781 </v>
  </varray>
  <varray name="stress" >
   <v>      -2.83879670      -0.21531810       0.64168449 </v>
   <v>      -0.21531791     -11.88959502       0.29282433 </v>
   <v>       0.64168420       0.29282446      -3.56361061 </v>
  </varray>
  <energy>
   <i name="e_fr_energy">   -303.54736480 </i>
   <i name="e_wo_entrp">   -303.54736480 </i>
   <i name="e_0_energy">      0.00000000 </i>
  </energy>
  <time name="totalsc"> 1648.45 1652.99</time>
 </calculation>
 <calculation>
  <scstep>
   <time name="dav">   62.08   62.29</time>
   <time name="total">   62.87   63.08</time>
   <energy>
    <i name="alphaZ">   1078.93845001 </i>
    <i name="ewald"> -30750.79745282 </i>
    <i name="hartreedc"> -12974.35330019 </i>
    <i name="XCdc">   1351.35799511 </i>
    <i name="pawpsdc">  43759.96884634 </i>
    <i name="pawaedc"> -43154.81878230 </i>
    <i name="eentropy">      0.00000000 </i>
    <i name="bandstr">  -4007.09613915 </i>
    <i name="atom">  44408.54722957 </i>
    <i name="e_fr_energy">   -288.25315342 </i>
    <i name="e_wo_entrp">   -288.25315342 </i>
    <i name="e_0_energy">   -288.25315342 </i>
   </energy>
  </scstep>
  <scstep>
   <time name="dav">   72.78   73.03</time>
   <time name="total">   73.55   73.82</time>
   <energy>
    <i name="e_fr_energy">   -292.59578153 </i>
    <i name="e_wo_entrp">   -292.59578153 </i>
    <i name="e_0_energy">   -292.59578153 </i>
   </energy>
  </scstep>
  <scstep>
   <time name="dav">   89.20   89.34</time>
   <time name="total">   89.99   90.14</time>
   <energy>
    <i name="e_fr_energy">   -292.40739854 </i>
    <i name="e_wo_entrp">   -292.40739854 </i>
    <i name="e_0_energy">   -292.40739854 </i>
   </energy>
  </scstep>
  <scstep>
   <time name="dav">   75.13   75.23</time>
   <time name="total">   75.92   76.02</time>
   <energy>
    <i name="e_fr_energy">   -292.27056616 </i>
    <i name="e_wo_entrp">   -292.27056616 </i>
    <i name="e_0_energy">   -292.27056616 </i>
   </energy>
  </scstep>
  <scstep>
   <time name="dav">   76.89   76.98</time>
   <time name="total">   77.71   77.80</time>
   <energy>
    <i name="e_fr_energy">   -292.24760644 </i>
    <i name="e_wo_entrp">   -292.24760644 </i>
    <i name="e_0_energy">   -292.24760644 </i>
   </energy>
  </scstep>
  <scstep>
   <time name="dav">   80.22   80.27</time>
   <time name="total">   81.01   81.06</time>
   <energy>
    <i name="e_fr_energy">   -292.24465648 </i>
    <i name="e_wo_entrp">   -292.24465648 </i>
    <i name="e_0_energy">   -292.24465648 </i>
   </energy>
  </scstep>
  <scstep>
   <time name="dav">   81.75   81.98</time>
   <time name="total">   82.53   82.77</time>
   <energy>
    <i name="e_fr_energy">   -292.24358301 </i>
    <i name="e_wo_entrp">   -292.24358301 </i>
    <i name="e_0_energy">   -292.24358301 </i>
   </energy>
  </scstep>
  <scstep>
   <time name="dav">   74.32   74.78</time>
   <time name="total">   75.11   75.57</time>
   <energy>
    <i name="e_fr_energy">   -292.24300042 </i>
    <i name="e_wo_entrp">   -292.24300042 </i>
    <i name="e_0_energy">   -292.24300042 </i>
   </energy>
  </scstep>
  <scstep>
   <time name="dav">   77.97   78.61</time>
   <time name="total">   78.78   79.43</time>
   <energy>
    <i name="e_fr_energy">   -292.24304279 </i>
    <i name="e_wo_entrp">   -292.24304279 </i>
    <i name="e_0_energy">   -292.24304279 </i>
   </energy>
  </scstep>
  <scstep>
   <time name="dav">   78.15   78.82</time>
   <time name="total">   78.94   79.61</time>
   <energy>
    <i name="e_fr_energy">   -292.24305582 </i>
    <i name="e_wo_entrp">   -292.24305582 </i>
    <i name="e_0_energy">   -292.24305582 </i>
   </energy>
  </scstep>
  <scstep>
   <time name="dav">   65.81   66.45</time>
   <time name="total">   66.60   67.24</time>
   <energy>
    <i name="e_fr_energy">   -292.24306249 </i>
    <i name="e_wo_entrp">   -292.24306249 </i>
    <i name="e_0_energy">   -292.24306249 </i>
   </energy>
  </scstep>
  <scstep>
   <time name="dav">   74.51   75.02</time>
   <time name="total">   75.30   75.81</time>
   <energy>
    <i name="e_fr_energy">   -292.24306311 </i>
    <i name="e_wo_entrp">   -292.24306311 </i>
    <i name="e_0_energy">   -292.24306311 </i>
   </energy>
  </scstep>
  <scstep>
   <time name="dav">   57.67   57.89</time>
   <time name="total">   57.74   57.96</time>
   <energy>
    <i name="alphaZ">   1078.93845001 </i>
    <i name="ewald"> -30750.79745282 </i>
    <i name="hartreedc"> -12881.46069207 </i>
    <i name="XCdc">   1347.48426880 </i>
    <i name="pawpsdc">  44065.96979435 </i>
    <i name="pawaedc"> -43463.57892873 </i>
    <i name="eentropy">      0.00000000 </i>
    <i name="bandstr">  -4097.34573234 </i>
    <i name="atom">  44408.54722957 </i>
    <i name="e_fr_energy">   -292.24306323 </i>
    <i name="e_wo_entrp">   -292.24306323 </i>
    <i name="e_0_energy">   -292.24306323 </i>
   </energy>
  </scstep>
  <structure>
   <crystal>
    <varray name="basis" >
     <v>      11.15943985      -0.00144568       0.00430838 </v>
     <v>      -0.00123825       9.50622517       0.00168398 </v>
     <v>       0.00430988       0.00196676      11.15846498 </v>
    </varray>
    <i name="volume">   1183.73601640 </i>
    <varray name="rec_basis" >
     <v>       0.08961025       0.00001168      -0.00003461 </v>
     <v>       0.00001363       0.10519423      -0.00001855 </v>
     <v>      -0.00003460      -0.00001588       0.08961808 </v>
    </varray>
   </crystal>
   <varray name="positions" >
    <v>       0.37033247       0.00054550       0.18901255 </v>
    <v>       0.62236422       0.00018548       0.43615991 </v>
    <v>       0.87929059      -0.00007311       0.43377613 </v>
    <v>       0.87910778      -0.00042027       0.18911051 </v>
    <v>       0.12834827       0.00019477       0.93969263 </v>
    <v>       0.37571451      -0.00012400       0.93786455 </v>
    <v>       0.12828630       0.99994420       0.68350825 </v>
    <v>       0.37222119      -0.00041075       0.68463839 </v>
    <v>       0.62215024       0.99991142       0.18494966 </v>
    <v>       0.87418446       0.00065962       0.94293442 </v>
    <v>       0.61768034       0.99979493       0.68916173 </v>
    <v>       0.87968751       0.00123607       0.68229810 </v>
    <v>       0.00325212       0.29588294       0.06576437 </v>
    <v>       0.24964155       0.70966187       0.06502632 </v>
    <v>       0.24912402       0.28197878       0.31335319 </v>
    <v>       0.49632763       0.70434731       0.31355123 </v>
    <v>       0.49795328       0.29526388       0.06322396 </v>
    <v>       0.74957194       0.69955249       0.06389084 </v>
    <v>       0.75069994       0.30111127       0.31285597 </v>
    <v>       0.00324478       0.71423960       0.31275909 </v>
    <v>       0.00364652       0.29611503       0.55986804 </v>
    <v>       0.25010550       0.71431538       0.56026112 </v>
    <v>       0.25037481       0.29582423       0.81263123 </v>
    <v>       0.49767475       0.70451025       0.81362496 </v>
    <v>       0.49654108       0.29586259       0.56079736 </v>
    <v>       0.75015781       0.69388433       0.56046129 </v>
    <v>       0.74838733       0.30568680       0.81397770 </v>
    <v>       0.00320319       0.69403767       0.81276891 </v>
    <v>       0.25004309       0.32797570       0.06087743 </v>
    <v>      -0.00185090       0.67281536       0.06045947 </v>
    <v>       0.50267174       0.32754278       0.31266210 </v>
    <v>       0.25098357       0.67201104       0.31232679 </v>
    <v>       0.75017583       0.32671348       0.06200156 </v>
    <v>       0.50184479       0.67249972       0.06253559 </v>
    <v>       0.99735943       0.32754422       0.31293811 </v>
    <v>       0.74892696       0.67257740       0.31299280 </v>
    <v>       0.24995209       0.32774539       0.56481439 </v>
    <v>      -0.00262566       0.67290657       0.56522653 </v>
    <v>       0.50165952       0.32713239       0.81252705 </v>
    <v>       0.24923685       0.67198478       0.81333206 </v>
    <v>       0.75007921       0.32656927       0.56419692 </v>
    <v>       0.50274407       0.67274213       0.56370348 </v>
    <v>       0.99802951       0.32674290       0.81282858 </v>
    <v>       0.75080179       0.67426077       0.81227612 </v>
    <v>       0.50081195       0.07820339       0.06669763 </v>
    <v>       0.25237203       0.91781079       0.05867403 </v>
    <v>       0.25266776       0.08934724       0.31014406 </v>
    <v>      -0.00641211       0.91467480       0.31252075 </v>
    <v>       0.99390337       0.07667851       0.05613107 </v>
    <v>       0.75277055       0.92617085       0.06405667 </v>
    <v>       0.74754480       0.07330286       0.31063005 </v>
    <v>       0.50656845       0.92254904       0.30798914 </v>
    <v>       0.50656126       0.07690057       0.56745630 </v>
    <v>       0.24978697       0.91429993       0.56835435 </v>
    <v>       0.24939550       0.07776070       0.81269796 </v>
    <v>      -0.00573569       0.93067946       0.81234641 </v>
    <v>       0.99329232       0.07637762       0.56869641 </v>
    <v>       0.74991915       0.93089358       0.56755119 </v>
    <v>       0.75524795       0.06878756       0.80749250 </v>
    <v>       0.50121974       0.92247090       0.80754006 </v>
   </varray>
  </structure>
  <varray name="forces" >
   <v>      -0.68285256       0.03811995       0.43389961 </v>
   <v>      -0.32690977       0.03750005      -0.02332781 </v>
   <v>       0.41094494      -0.00888415      -0.39389916 </v>
   <v>       0.60214314      -0.05765005       0.37400791 </v>
   <v>       0.26242865       0.04312664       0.32096209 </v>
   <v>       0.16945226      -0.03529504       0.11134444 </v>
   <v>       0.42265011       0.02802126      -0.40899430 </v>
   <v>      -0.37447269      -0.05678926      -0.36630837 </v>
   <v>       0.17099624       0.01052048      -0.40603116 </v>
   <v>      -0.60611573      -0.05883548      -0.08558529 </v>
   <v>       0.24741467      -0.02269961       0.51131176 </v>
   <v>      -0.13857195      -0.14975882       0.14754161 </v>
   <v>       0.32831726      -0.02271478       0.21494117 </v>
   <v>      -0.10838807      -1.01507049       0.24360347 </v>
   <v>      -0.16856017       3.84898763       0.17333452 </v>
   <v>      -0.31487619      -0.10911622       0.10555201 </v>
   <v>      -0.18952667       0.27519910       0.05495161 </v>
   <v>      -0.04925515       0.03138436       0.05545221 </v>
   <v>       0.00392147      -0.11313230       0.04228446 </v>
   <v>       0.47239180      -1.96365542      -0.01041107 </v>
   <v>       0.27747099      -0.04688152      -0.21262966 </v>
   <v>       0.00561648      -2.14153911      -0.40737201 </v>
   <v>      -0.03480730       0.23065653       0.00103252 </v>
   <v>      -0.12979109      -0.17468909       0.09063242 </v>
   <v>      -0.28254436       0.01427502      -0.27770824 </v>
   <v>      -0.00799207       0.14947881      -0.14458467 </v>
   <v>      -0.03772130      -0.28632593       0.02328444 </v>
   <v>       0.21814876       0.11126545      -0.00773419 </v>
   <v>      -0.00798536       0.17375370      -0.26607319 </v>
   <v>      -0.21782278      -0.12699135      -0.26334677 </v>
   <v>       0.34612832       0.19852620      -0.02629689 </v>
   <v>       0.17555049      -0.07159613      -0.10154004 </v>
   <v>       0.01998159       0.11343810      -0.07379319 </v>
   <v>       0.18871458      -0.13440331      -0.00895795 </v>
   <v>      -0.34530714       0.07167669       0.01058535 </v>
   <v>      -0.10376964      -0.26187527      -0.01141141 </v>
   <v>      -0.01653076       0.09481635       0.28085954 </v>
   <v>      -0.28104608      -0.12597833       0.24753401 </v>
   <v>       0.16915299       0.09140057      -0.06628728 </v>
   <v>      -0.05933825      -0.24766093       0.05474712 </v>
   <v>       0.00516787       0.24800830       0.12865421 </v>
   <v>       0.28960543      -0.14116587       0.11151512 </v>
   <v>      -0.18043753       0.26061776      -0.00091447 </v>
   <v>       0.04489066      -0.14665685      -0.03614739 </v>
   <v>      -0.21705966      -0.08579166       0.61690271 </v>
   <v>       0.52905741       1.11372109      -0.60047238 </v>
   <v>       0.60953115      -4.30877505      -0.59465232 </v>
   <v>      -1.17981510       2.28857041       0.00094941 </v>
   <v>      -0.52339362       0.22475304      -0.51487626 </v>
   <v>       0.32948287      -0.40681998       0.55549381 </v>
   <v>      -0.28868084       0.40445247      -0.31907773 </v>
   <v>       0.68748110      -0.05222573      -0.66281396 </v>
   <v>       0.52665589       0.19710999       0.53822845 </v>
   <v>      -0.00460676       2.45112337       1.15482766 </v>
   <v>      -0.00051225      -0.14775868       0.00938154 </v>
   <v>      -0.40083088      -0.65980859       0.10696273 </v>
   <v>      -0.27016386       0.39500360       0.26224047 </v>
   <v>      -0.12455670      -0.67321238       0.41129600 </v>
   <v>       0.55634520       0.75652638      -0.56907157 </v>
   <v>      -0.39540003      -0.04827594      -0.53399565 </v>
  </varray>
  <varray name="stress" >
   <v>       7.58719379       0.23446071      -0.47205388 </v>
   <v>       0.23446082      10.86651280      -0.74998726 </v>
   <v>      -0.47205386      -0.74998752       7.09350180 </v>
  </varray>
  <energy>
   <i name="e_fr_energy">   -305.90720215 </i>
   <i name="e_wo_entrp">   -305.90720215 </i>
   <i name="e_0_energy">      0.00000000 </i>
  </energy>
  <time name="totalsc"> 1080.98 1086.03</time>
 </calculation>
 <calculation>
  <scstep>
   <time name="dav">   64.16   64.69</time>
   <time name="total">   64.95   65.48</time>
   <energy>
    <i name="alphaZ">   1077.28891154 </i>
    <i name="ewald"> -30741.39634548 </i>
    <i name="hartreedc"> -12871.42202976 </i>
    <i name="XCdc">   1346.50649176 </i>
    <i name="pawpsdc">  44066.09129066 </i>
    <i name="pawaedc"> -43463.70123921 </i>
    <i name="eentropy">      0.00000000 </i>
    <i name="bandstr">  -4114.17368076 </i>
    <i name="atom">  44408.54722957 </i>
    <i name="e_fr_energy">   -292.25937168 </i>
    <i name="e_wo_entrp">   -292.25937168 </i>
    <i name="e_0_energy">   -292.25937168 </i>
   </energy>
  </scstep>
  <scstep>
   <time name="dav">   69.24   69.49</time>
   <time name="total">   70.03   70.29</time>
   <energy>
    <i name="e_fr_energy">   -292.34014846 </i>
    <i name="e_wo_entrp">   -292.34014846 </i>
    <i name="e_0_energy">   -292.34014846 </i>
   </energy>
  </scstep>
  <scstep>
   <time name="dav">   79.99   80.26</time>
   <time name="total">   80.78   81.06</time>
   <energy>
    <i name="e_fr_energy">   -292.33672050 </i>
    <i name="e_wo_entrp">   -292.33672050 </i>
    <i name="e_0_energy">   -292.33672050 </i>
   </energy>
  </scstep>
  <scstep>
   <time name="dav">   71.05   71.30</time>
   <time name="total">   71.84   72.09</time>
   <energy>
    <i name="e_fr_energy">   -292.33310511 </i>
    <i name="e_wo_entrp">   -292.33310511 </i>
    <i name="e_0_energy">   -292.33310511 </i>
   </energy>
  </scstep>
  <scstep>
   <time name="dav">   83.53   83.83</time>
   <time name="total">   84.32   84.62</time>
   <energy>
    <i name="e_fr_energy">   -292.33265761 </i>
    <i name="e_wo_entrp">   -292.33265761 </i>
    <i name="e_0_energy">   -292.33265761 </i>
   </energy>
  </scstep>
  <scstep>
   <time name="dav">   74.48   74.77</time>
   <time name="total">   75.26   75.56</time>
   <energy>
    <i name="e_fr_energy">   -292.33261660 </i>
    <i name="e_wo_entrp">   -292.33261660 </i>
    <i name="e_0_energy">   -292.33261660 </i>
   </energy>
  </scstep>
  <scstep>
   <time name="dav">   82.68   83.27</time>
   <time name="total">   83.46   84.06</time>
   <energy>
    <i name="e_fr_energy">   -292.33258452 </i>
    <i name="e_wo_entrp">   -292.33258452 </i>
    <i name="e_0_energy">   -292.33258452 </i>
   </energy>
  </scstep>
  <scstep>
   <time name="dav">   72.52   73.08</time>
   <time name="total">   73.37   73.94</time>
   <energy>
    <i name="e_fr_energy">   -292.33257245 </i>
    <i name="e_wo_entrp">   -292.33257245 </i>
    <i name="e_0_energy">   -292.33257245 </i>
   </energy>
  </scstep>
  <scstep>
   <time name="dav">   77.99   78.75</time>
   <time name="total">   78.78   79.55</time>
   <energy>
    <i name="e_fr_energy">   -292.33257179 </i>
    <i name="e_wo_entrp">   -292.33257179 </i>
    <i name="e_0_energy">   -292.33257179 </i>
   </energy>
  </scstep>
  <scstep>
   <time name="dav">   57.23   57.73</time>
   <time name="total">   58.01   58.52</time>
   <energy>
    <i name="e_fr_energy">   -292.33257297 </i>
    <i name="e_wo_entrp">   -292.33257297 </i>
    <i name="e_0_energy">   -292.33257297 </i>
   </energy>
  </scstep>
  <scstep>
   <time name="dav">   52.35   52.66</time>
   <time name="total">   52.42   52.73</time>
   <energy>
    <i name="alphaZ">   1077.28891154 </i>
    <i name="ewald"> -30741.39634548 </i>
    <i name="hartreedc"> -12884.58706202 </i>
    <i name="XCdc">   1347.06461851 </i>
    <i name="pawpsdc">  44004.52719443 </i>
    <i name="pawaedc"> -43401.44057770 </i>
    <i name="eentropy">      0.00000000 </i>
    <i name="bandstr">  -4102.33654244 </i>
    <i name="atom">  44408.54722957 </i>
    <i name="e_fr_energy">   -292.33257357 </i>
    <i name="e_wo_entrp">   -292.33257357 </i>
    <i name="e_0_energy">   -292.33257357 </i>
   </energy>
  </scstep>
  <structure>
   <crystal>
    <varray name="basis" >
     <v>      11.16208092      -0.00124536       0.00371139 </v>
     <v>      -0.00106667       9.51569954       0.00145064 </v>
     <v>       0.00371268       0.00169423      11.16178154 </v>
    </varray>
    <i name="volume">   1185.54854605 </i>
    <varray name="rec_basis" >
     <v>       0.08958904       0.00001005      -0.00002980 </v>
     <v>       0.00001173       0.10508949      -0.00001596 </v>
     <v>      -0.00002979      -0.00001366       0.08959144 </v>
    </varray>
   </crystal>
   <varray name="positions" >
    <v>       0.37092631       0.00049325       0.18871481 </v>
    <v>       0.62278416       0.00013731       0.43625836 </v>
    <v>       0.87874902      -0.00003935       0.43420596 </v>
    <v>       0.87848361      -0.00033792       0.18879962 </v>
    <v>       0.12793780       0.00014528       0.93930084 </v>
    <v>       0.37566953      -0.00008295       0.93772646 </v>
    <v>       0.12777584       0.99992948       0.68397527 </v>
    <v>       0.37255265      -0.00032971       0.68494814 </v>
    <v>       0.62249155       0.99990145       0.18521619 </v>
    <v>       0.87435211       0.00059148       0.94209224 </v>
    <v>       0.61864231       0.99980143       0.68884312 </v>
    <v>       0.87898248       0.00108704       0.68293326 </v>
    <v>       0.00281891       0.29578625       0.06535430 </v>
    <v>       0.24970939       0.70898481       0.06471863 </v>
    <v>       0.24922780       0.28382259       0.31327883 </v>
    <v>       0.49681936       0.70441198       0.31344949 </v>
    <v>       0.49825544       0.29525363       0.06316636 </v>
    <v>       0.74964954       0.70028628       0.06374061 </v>
    <v>       0.75058466       0.30028487       0.31285114 </v>
    <v>       0.00277620       0.71292352       0.31276793 </v>
    <v>       0.00315825       0.29598578       0.56027678 </v>
    <v>       0.25010862       0.71298872       0.56061527 </v>
    <v>       0.25030472       0.29573570       0.81265748 </v>
    <v>       0.49797951       0.70455215       0.81351305 </v>
    <v>       0.49703911       0.29576874       0.56107666 </v>
    <v>       0.75015399       0.69540907       0.56078721 </v>
    <v>       0.74859302       0.30422191       0.81381708 </v>
    <v>       0.00274070       0.69554101       0.81277596 </v>
    <v>       0.25004392       0.32780738       0.06115276 </v>
    <v>      -0.00158717       0.67287320       0.06079270 </v>
    <v>       0.50229393       0.32743487       0.31268974 </v>
    <v>       0.25084010       0.67218112       0.31240086 </v>
    <v>       0.75015832       0.32672134       0.06212077 </v>
    <v>       0.50159566       0.67260159       0.06258072 </v>
    <v>       0.99771900       0.32743623       0.31292714 </v>
    <v>       0.74906898       0.67266851       0.31297429 </v>
    <v>       0.24996577       0.32760932       0.56454302 </v>
    <v>      -0.00225414       0.67295184       0.56489776 </v>
    <v>       0.50142221       0.32708177       0.81257339 </v>
    <v>       0.24933588       0.67215859       0.81326644 </v>
    <v>       0.75007523       0.32659732       0.56401127 </v>
    <v>       0.50237018       0.67281018       0.56358648 </v>
    <v>       0.99829607       0.32674673       0.81283284 </v>
    <v>       0.75068351       0.67411688       0.81235727 </v>
    <v>       0.50068143       0.07817232       0.06610924 </v>
    <v>       0.25202461       0.91839808       0.05919981 </v>
    <v>       0.25231521       0.08776069       0.31046604 </v>
    <v>      -0.00550394       0.91570005       0.31251181 </v>
    <v>       0.99473123       0.07686009       0.05700958 </v>
    <v>       0.75236797       0.92559154       0.06383519 </v>
    <v>       0.74790360       0.07395562       0.31088392 </v>
    <v>       0.50567453       0.92247494       0.30861033 </v>
    <v>       0.50563278       0.07705122       0.56676283 </v>
    <v>       0.24979893       0.91537753       0.56753568 </v>
    <v>       0.24949747       0.07779133       0.81266487 </v>
    <v>      -0.00492166       0.92947105       0.81236205 </v>
    <v>       0.99420568       0.07660157       0.56783002 </v>
    <v>       0.74991246       0.92965532       0.56684441 </v>
    <v>       0.75453745       0.07007022       0.80818238 </v>
    <v>       0.50106821       0.92240781       0.80822332 </v>
   </varray>
  </structure>
  <varray name="forces" >
   <v>      -0.73114149       0.04854109       0.44834452 </v>
   <v>      -0.38005182       0.04096849      -0.04259770 </v>
   <v>       0.48301027      -0.01905123      -0.44189201 </v>
   <v>       0.66651575      -0.06930077       0.39824260 </v>
   <v>       0.32023156       0.04464896       0.36750127 </v>
   <v>       0.15564898      -0.03958399       0.12919438 </v>
   <v>       0.48431209       0.02210915      -0.46361502 </v>
   <v>      -0.40209233      -0.06753899      -0.39095775 </v>
   <v>       0.05390940       0.00994101      -0.40648961 </v>
   <v>      -0.54259119      -0.02851649       0.14346199 </v>
   <v>      -0.03674377      -0.02203599       0.51058338 </v>
   <v>       0.08527913      -0.07267479      -0.05959079 </v>
   <v>       0.38896096       0.00081975       0.28410826 </v>
   <v>      -0.10456306      -0.67881084       0.27652876 </v>
   <v>      -0.14120693       2.39115847       0.14179635 </v>
   <v>      -0.39016450      -0.10748253       0.11429724 </v>
   <v>      -0.23647315       0.23550705       0.06341553 </v>
   <v>      -0.06280841      -0.09420906       0.08299724 </v>
   <v>       0.03250768       0.03472596       0.03883304 </v>
   <v>       0.48550360      -1.22308201      -0.01150464 </v>
   <v>       0.35784009      -0.01539735      -0.28199753 </v>
   <v>       0.00360946      -1.35436791      -0.40546959 </v>
   <v>      -0.01480792       0.21427919      -0.00533175 </v>
   <v>      -0.18247038      -0.15785517       0.10439686 </v>
   <v>      -0.36431266       0.03255076      -0.30810560 </v>
   <v>      -0.00693196      -0.07468197      -0.20189870 </v>
   <v>      -0.08251111      -0.05584188       0.05781595 </v>
   <v>       0.29892920      -0.10659430      -0.00841661 </v>
   <v>      -0.00804588       0.18646862      -0.29876922 </v>
   <v>      -0.24994043      -0.12274693      -0.30688901 </v>
   <v>       0.39245262       0.19555451      -0.02861399 </v>
   <v>       0.18611315      -0.09894622      -0.10466980 </v>
   <v>       0.02147872       0.09746211      -0.09287864 </v>
   <v>       0.22228971      -0.13629860      -0.01891041 </v>
   <v>      -0.38805894       0.08621722       0.01135723 </v>
   <v>      -0.12193023      -0.24470993      -0.00455338 </v>
   <v>      -0.01689555       0.11179054       0.30980281 </v>
   <v>      -0.33128725      -0.12056658       0.29196078 </v>
   <v>       0.20440044       0.08920766      -0.06794828 </v>
   <v>      -0.07702984      -0.24867289       0.06270201 </v>
   <v>       0.00495741       0.21123348       0.15614444 </v>
   <v>       0.33969051      -0.13660242       0.12368141 </v>
   <v>      -0.21997636       0.22614832      -0.00137164 </v>
   <v>       0.06623431      -0.10358465      -0.05059505 </v>
   <v>      -0.14893635      -0.06960777       0.67199892 </v>
   <v>       0.53275709       0.78379660      -0.63462009 </v>
   <v>       0.58192978      -2.85006170      -0.56417455 </v>
   <v>      -1.19830675       1.57010014       0.00285193 </v>
   <v>      -0.67188284       0.14009299      -0.67304756 </v>
   <v>       0.38601975      -0.25464156       0.52241871 </v>
   <v>      -0.33503861       0.24915264      -0.33585065 </v>
   <v>       0.81200792      -0.02211776      -0.72539130 </v>
   <v>       0.69062165       0.12412702       0.64885640 </v>
   <v>      -0.00645500       1.67859624       1.15859595 </v>
   <v>      -0.02381237      -0.12977552       0.01652885 </v>
   <v>      -0.54727269      -0.41409498       0.08244015 </v>
   <v>      -0.49848116       0.26448761       0.48075090 </v>
   <v>      -0.10014118      -0.42468328       0.52860248 </v>
   <v>       0.65360611       0.49191944      -0.65921104 </v>
   <v>      -0.28845523      -0.01746893      -0.63484846 </v>
  </varray>
  <varray name="stress" >
   <v>       5.78874993       0.25331318      -0.27690484 </v>
   <v>       0.25331313       4.70124812      -0.62997229 </v>
   <v>      -0.27690479      -0.62997222       5.27627748 </v>
  </varray>
  <energy>
   <i name="e_fr_energy">   -305.97877722 </i>
   <i name="e_wo_entrp">   -305.97877722 </i>
   <i name="e_0_energy">      0.00000000 </i>
  </energy>
  <time name="totalsc">  897.64  903.45</time>
 </calculation>
 <calculation>
  <scstep>
   <time name="dav">   64.30   64.97</time>
   <time name="total">   65.15   65.83</time>
   <energy>
    <i name="alphaZ">   1071.81353515 </i>
    <i name="ewald"> -30795.46455289 </i>
    <i name="hartreedc"> -12762.71223456 </i>
    <i name="XCdc">   1343.49388140 </i>
    <i name="pawpsdc">  44004.63757027 </i>
    <i name="pawaedc"> -43401.54992881 </i>
    <i name="eentropy">      0.00000000 </i>
    <i name="bandstr">  -4160.10329831 </i>
    <i name="atom">  44408.54722957 </i>
    <i name="e_fr_energy">   -291.33779819 </i>
    <i name="e_wo_entrp">   -291.33779819 </i>
    <i name="e_0_energy">   -291.33779819 </i>
   </energy>
  </scstep>
  <scstep>
   <time name="dav">   66.53   67.24</time>
   <time name="total">   67.32   68.03</time>
   <energy>
    <i name="e_fr_energy">   -293.33941516 </i>
    <i name="e_wo_entrp">   -293.33941516 </i>
    <i name="e_0_energy">   -293.33941516 </i>
   </energy>
  </scstep>
  <scstep>
   <time name="dav">   83.79   84.67</time>
   <time name="total">   84.58   85.46</time>
   <energy>
    <i name="e_fr_energy">   -293.31101977 </i>
    <i name="e_wo_entrp">   -293.31101977 </i>
    <i name="e_0_energy">   -293.31101977 </i>
   </energy>
  </scstep>
  <scstep>
   <time name="dav">   74.82   75.59</time>
   <time name="total">   75.59   76.39</time>
   <energy>
    <i name="e_fr_energy">   -293.27510568 </i>
    <i name="e_wo_entrp">   -293.27510568 </i>
    <i name="e_0_energy">   -293.27510568 </i>
   </energy>
  </scstep>
  <scstep>
   <time name="dav">   70.59   71.22</time>
   <time name="total">   71.37   72.02</time>
   <energy>
    <i name="e_fr_energy">   -293.24832276 </i>
    <i name="e_wo_entrp">   -293.24832276 </i>
    <i name="e_0_energy">   -293.24832276 </i>
   </energy>
  </scstep>
  <scstep>
   <time name="dav">   73.11   74.20</time>
   <time name="total">   73.90   74.99</time>
   <energy>
    <i name="e_fr_energy">   -293.24459567 </i>
    <i name="e_wo_entrp">   -293.24459567 </i>
    <i name="e_0_energy">   -293.24459567 </i>
   </energy>
  </scstep>
  <scstep>
   <time name="dav">   68.93   69.37</time>
   <time name="total">   69.71   70.16</time>
   <energy>
    <i name="e_fr_energy">   -293.24490732 </i>
    <i name="e_wo_entrp">   -293.24490732 </i>
    <i name="e_0_energy">   -293.24490732 </i>
   </energy>
  </scstep>
  <scstep>
   <time name="dav">   80.89   82.00</time>
   <time name="total">   81.68   82.80</time>
   <energy>
    <i name="e_fr_energy">   -293.24475137 </i>
    <i name="e_wo_entrp">   -293.24475137 </i>
    <i name="e_0_energy">   -293.24475137 </i>
   </energy>
  </scstep>
  <scstep>
   <time name="dav">   70.66   70.95</time>
   <time name="total">   71.43   71.75</time>
   <energy>
    <i name="e_fr_energy">   -293.24464686 </i>
    <i name="e_wo_entrp">   -293.24464686 </i>
    <i name="e_0_energy">   -293.24464686 </i>
   </energy>
  </scstep>
  <scstep>
   <time name="dav">   76.11   76.71</time>
   <time name="total">   76.89   77.50</time>
   <energy>
    <i name="e_fr_energy">   -293.24465354 </i>
    <i name="e_wo_entrp">   -293.24465354 </i>
    <i name="e_0_energy">   -293.24465354 </i>
   </energy>
  </scstep>
  <scstep>
   <time name="dav">   67.80   68.82</time>
   <time name="total">   68.58   69.61</time>
   <energy>
    <i name="e_fr_energy">   -293.24465725 </i>
    <i name="e_wo_entrp">   -293.24465725 </i>
    <i name="e_0_energy">   -293.24465725 </i>
   </energy>
  </scstep>
  <scstep>
   <time name="dav">   66.15   67.11</time>
   <time name="total">   66.94   67.90</time>
   <energy>
    <i name="e_fr_energy">   -293.24465854 </i>
    <i name="e_wo_entrp">   -293.24465854 </i>
    <i name="e_0_energy">   -293.24465854 </i>
   </energy>
  </scstep>
  <scstep>
   <time name="dav">   60.58   61.26</time>
   <time name="total">   61.37   62.05</time>
   <energy>
    <i name="e_fr_energy">   -293.24465957 </i>
    <i name="e_wo_entrp">   -293.24465957 </i>
    <i name="e_0_energy">   -293.24465957 </i>
   </energy>
  </scstep>
  <scstep>
   <time name="dav">   52.27   52.64</time>
   <time name="total">   52.34   52.71</time>
   <energy>
    <i name="alphaZ">   1071.81353515 </i>
    <i name="ewald"> -30795.46455289 </i>
    <i name="hartreedc"> -12806.95816945 </i>
    <i name="XCdc">   1345.62356012 </i>
    <i name="pawpsdc">  43724.69331740 </i>
    <i name="pawaedc"> -43117.30096026 </i>
    <i name="eentropy">      0.00000000 </i>
    <i name="bandstr">  -4124.19861981 </i>
    <i name="atom">  44408.54722957 </i>
    <i name="e_fr_energy">   -293.24466016 </i>
    <i name="e_wo_entrp">   -293.24466016 </i>
    <i name="e_0_energy">   -293.24466016 </i>
   </energy>
  </scstep>
  <structure>
   <crystal>
    <varray name="basis" >
     <v>      11.19249735      -0.00013896       0.00350572 </v>
     <v>      -0.00012534       9.51672274      -0.00140165 </v>
     <v>       0.00350850      -0.00165479      11.18711055 </v>
    </varray>
    <i name="volume">   1191.60493955 </i>
    <varray name="rec_basis" >
     <v>       0.08934557       0.00000117      -0.00002802 </v>
     <v>       0.00000130       0.10507819       0.00001554 </v>
     <v>      -0.00002800       0.00001316       0.08938860 </v>
    </varray>
   </crystal>
   <varray name="positions" >
    <v>       0.36628619       0.00086963       0.19138551 </v>
    <v>       0.62007895       0.00046612       0.43582001 </v>
    <v>       0.88220848      -0.00022175       0.43121416 </v>
    <v>       0.88293109      -0.00089662       0.19129276 </v>
    <v>       0.13036626       0.00049579       0.94187865 </v>
    <v>       0.37644214      -0.00038633       0.93863360 </v>
    <v>       0.13115871       0.00007782       0.68079400 </v>
    <v>       0.36998873      -0.00087626       0.68248839 </v>
    <v>       0.62181790       0.99997708       0.18280452 </v>
    <v>       0.87162949       0.00063025       0.94491821 </v>
    <v>       0.61594861       0.99967534       0.69182944 </v>
    <v>       0.88120134       0.00112178       0.68100681 </v>
    <v>       0.00559630       0.29604526       0.06762984 </v>
    <v>       0.24909027       0.70742390       0.06669324 </v>
    <v>       0.24836157       0.29074708       0.31406948 </v>
    <v>       0.49388193       0.70371137       0.31419882 </v>
    <v>       0.49646438       0.29644140       0.06358498 </v>
    <v>       0.74918071       0.69788683       0.06448592 </v>
    <v>       0.75102543       0.30263522       0.31302706 </v>
    <v>       0.00605234       0.71036530       0.31269651 </v>
    <v>       0.00595084       0.29625108       0.55801273 </v>
    <v>       0.25011538       0.70981128       0.55797776 </v>
    <v>       0.25042755       0.29702539       0.81256570 </v>
    <v>       0.49640829       0.70366338       0.81424736 </v>
[...]
       <r>    8.7611    0.0000 </r>
       <r>    8.7649    0.0000 </r>
       <r>    8.7794    0.0000 </r>
       <r>    8.8339    0.0000 </r>
       <r>    8.9066    0.0000 </r>
       <r>    8.9249    0.0000 </r>
       <r>    8.9953    0.0000 </r>
      </set>
     </set>
    </set>
   </array>
  </eigenvalues>
  <separator name="orbital magnetization" >
   <v name="MAGDIPOLOUT">      0.00000000      0.00000000      0.00000000</v>
  </separator>
  <dos>
   <i name="efermi">      4.26505676 </i>
   <total>
    <array>
     <dimension dim="1">gridpoints</dimension>
     <dimension dim="2">spin</dimension>
     <field>energy</field>
     <field>total</field>
     <field>integrated</field>
     <set>
      <set comment="spin 1">
       <r>   -42.6318     0.0000     0.0000 </r>
       <r>   -42.4495     0.0000     0.0000 </r>
       <r>   -42.2672     0.0000     0.0000 </r>
       <r>   -42.0849     0.0000     0.0000 </r>
       <r>   -41.9026     0.0000     0.0000 </r>
       <r>   -41.7203     0.0000     0.0000 </r>
       <r>   -41.5380     0.0000     0.0000 </r>
       <r>   -41.3557     0.0000     0.0000 </r>
       <r>   -41.1734     0.0000     0.0000 </r>
       <r>   -40.9911     0.0000     0.0000 </r>
       <r>   -40.8088     0.0000     0.0000 </r>
       <r>   -40.6265     0.0000     0.0000 </r>
       <r>   -40.4442     0.0000     0.0000 </r>
       <r>   -40.2619     0.0000     0.0000 </r>
       <r>   -40.0796     0.0000     2.0000 </r>
       <r>   -39.8973     0.0000     4.0000 </r>
       <r>   -39.7150     0.0000     8.0000 </r>
       <r>   -39.5327     0.0000    10.0000 </r>
       <r>   -39.3504     0.0000    12.0000 </r>
       <r>   -39.1681     0.0000    14.0000 </r>
       <r>   -38.9858     0.0000    16.0000 </r>
       <r>   -38.8035     0.0000    16.0000 </r>
       <r>   -38.6212     0.0000    16.0000 </r>
       <r>   -38.4389     0.0000    16.0000 </r>
       <r>   -38.2566     0.0000    16.0000 </r>
       <r>   -38.0743     0.0000    16.0000 </r>
       <r>   -37.8920     0.0000    16.0000 </r>
       <r>   -37.7097     0.0000    16.0000 </r>
       <r>   -37.5274     0.0000    16.0000 </r>
       <r>   -37.3451     0.0000    16.0000 </r>
       <r>   -37.1628     0.0000    16.0000 </r>
       <r>   -36.9805     0.0000    16.0000 </r>
       <r>   -36.7982     0.0000    16.0000 </r>
       <r>   -36.6159     0.0000    16.0000 </r>
       <r>   -36.4336     0.0000    16.0000 </r>
       <r>   -36.2513     0.0000    16.0000 </r>
       <r>   -36.0690     0.0000    16.0000 </r>
       <r>   -35.8867     0.0000    16.0000 </r>
       <r>   -35.7044     0.0000    16.0000 </r>
       <r>   -35.5221     0.0000    16.0000 </r>
       <r>   -35.3398     0.0000    16.0000 </r>
       <r>   -35.1575     0.0000    16.0000 </r>
       <r>   -34.9752     0.0000    16.0000 </r>
       <r>   -34.7929     0.0000    16.0000 </r>
       <r>   -34.6106     0.0000    16.0000 </r>
       <r>   -34.4283     0.0000    16.0000 </r>
       <r>   -34.2460     0.0000    16.0000 </r>
       <r>   -34.0637     0.0000    16.0000 </r>
       <r>   -33.8814     0.0000    16.0000 </r>
       <r>   -33.6991     0.0000    16.0000 </r>
       <r>   -33.5168     0.0000    16.0000 </r>
       <r>   -33.3345     0.0000    16.0000 </r>
       <r>   -33.1522     0.0000    16.0000 </r>
       <r>   -32.9699     0.0000    16.0000 </r>
       <r>   -32.7876     0.0000    16.0000 </r>
       <r>   -32.6053     0.0000    16.0000 </r>
       <r>   -32.4230     0.0000    16.0000 </r>
       <r>   -32.2407     0.0000    16.0000 </r>
       <r>   -32.0584     0.0000    16.0000 </r>
       <r>   -31.8761     0.0000    16.0000 </r>
       <r>   -31.6938     0.0000    16.0000 </r>
       <r>   -31.5115     0.0000    16.0000 </r>
       <r>   -31.3292     0.0000    16.0000 </r>
       <r>   -31.1469     0.0000    16.0000 </r>
       <r>   -30.9646     0.0000    16.0000 </r>
       <r>   -30.7823     0.0000    16.0000 </r>
       <r>   -30.6000     0.0000    16.0000 </r>
       <r>   -30.4177     0.0000    16.0000 </r>
       <r>   -30.2354     0.0000    16.0000 </r>
       <r>   -30.0531     0.0000    16.0000 </r>
       <r>   -29.8708     0.0000    16.0000 </r>
       <r>   -29.6885     0.0000    16.0000 </r>
       <r>   -29.5062     0.0000    16.0000 </r>
       <r>   -29.3239     0.0000    16.0000 </r>
       <r>   -29.1416     0.0000    16.0000 </r>
       <r>   -28.9593     0.0000    16.0000 </r>
       <r>   -28.7770     0.0000    16.0000 </r>
       <r>   -28.5947     0.0000    16.0000 </r>
       <r>   -28.4124     0.0000    16.0000 </r>
       <r>   -28.2301     0.0000    16.0000 </r>
       <r>   -28.0478     0.0000    16.0000 </r>
       <r>   -27.8655     0.0000    16.0000 </r>
       <r>   -27.6832     0.0000    16.0000 </r>
       <r>   -27.5009     0.0000    16.0000 </r>
       <r>   -27.3186     0.0000    16.0000 </r>
       <r>   -27.1363     0.0000    16.0000 </r>
       <r>   -26.9540     0.0000    16.0000 </r>
       <r>   -26.7717     0.0000    16.0000 </r>
       <r>   -26.5894     0.0000    16.0000 </r>
       <r>   -26.4071     0.0000    16.0000 </r>
       <r>   -26.2248     0.0000    16.0000 </r>
       <r>   -26.0425     0.0000    16.0000 </r>
       <r>   -25.8602     0.0000    16.0000 </r>
       <r>   -25.6779     0.0000    16.0000 </r>
       <r>   -25.4956     0.0000    16.0000 </r>
       <r>   -25.3132     0.0000    16.0000 </r>
       <r>   -25.1309     0.0000    16.0000 </r>
       <r>   -24.9486     0.0000    16.0000 </r>
       <r>   -24.7663     0.0000    16.0000 </r>
       <r>   -24.5840     0.0000    16.0000 </r>
       <r>   -24.4017     0.0000    16.0000 </r>
       <r>   -24.2194     0.0000    16.0000 </r>
       <r>   -24.0371     0.0000    16.0000 </r>
       <r>   -23.8548     0.0000    16.0000 </r>
       <r>   -23.6725     0.0000    16.0000 </r>
       <r>   -23.4902     0.0000    16.0000 </r>
       <r>   -23.3079     0.0000    16.0000 </r>
       <r>   -23.1256     0.0000    16.0000 </r>
       <r>   -22.9433     0.0000    16.0000 </r>
       <r>   -22.7610     0.0000    16.0000 </r>
       <r>   -22.5787     0.0000    16.0000 </r>
       <r>   -22.3964     0.0000    16.0000 </r>
       <r>   -22.2141     0.0000    16.0000 </r>
       <r>   -22.0318     0.0000    16.0000 </r>
       <r>   -21.8495     0.0000    16.0000 </r>
       <r>   -21.6672     0.0000    16.0000 </r>
       <r>   -21.4849     0.0000    16.0000 </r>
       <r>   -21.3026     0.0000    16.0000 </r>
       <r>   -21.1203     0.0000    16.0000 </r>
       <r>   -20.9380     0.0000    16.0000 </r>
       <r>   -20.7557     0.0000    16.0000 </r>
       <r>   -20.5734     0.0000    16.0000 </r>
       <r>   -20.3911     0.0000    16.0000 </r>
       <r>   -20.2088     0.0000    16.0000 </r>
       <r>   -20.0265     0.0000    16.0000 </r>
       <r>   -19.8442     0.0000    16.0000 </r>
       <r>   -19.6619     0.0000    16.0000 </r>
       <r>   -19.4796     0.0000    16.0000 </r>
       <r>   -19.2973     0.0000    16.0000 </r>
       <r>   -19.1150     0.0000    16.0000 </r>
       <r>   -18.9327     0.0000    16.0000 </r>
       <r>   -18.7504     0.0000    46.0000 </r>
       <r>   -18.5681     0.0000   126.0000 </r>
       <r>   -18.3858     0.0000   168.0000 </r>
       <r>   -18.2035     0.0000   176.0000 </r>
       <r>   -18.0212     0.0000   176.0000 </r>
       <r>   -17.8389     0.0000   176.0000 </r>
       <r>   -17.6566     0.0000   176.0000 </r>
       <r>   -17.4743     0.0000   176.0000 </r>
       <r>   -17.2920     0.0000   176.0000 </r>
       <r>   -17.1097     0.0000   176.0000 </r>
       <r>   -16.9274     0.0000   176.0000 </r>
       <r>   -16.7451     0.0000   176.0000 </r>
       <r>   -16.5628     0.0000   176.0000 </r>
       <r>   -16.3805     0.0000   176.0000 </r>
       <r>   -16.1982     0.0000   176.0000 </r>
       <r>   -16.0159     0.0000   176.0000 </r>
       <r>   -15.8336     0.0000   176.0000 </r>
       <r>   -15.6513     0.0000   176.0000 </r>
       <r>   -15.4690     0.0000   176.0000 </r>
       <r>   -15.2867     0.0000   176.0000 </r>
       <r>   -15.1044     0.0000   176.0000 </r>
       <r>   -14.9221     0.0000   176.0000 </r>
       <r>   -14.7398     0.0000   176.0000 </r>
       <r>   -14.5575     0.0000   176.0000 </r>
       <r>   -14.3752     0.0000   176.0000 </r>
       <r>   -14.1929     0.0000   176.0000 </r>
       <r>   -14.0106     0.0000   176.0000 </r>
       <r>   -13.8283     0.0000   176.0000 </r>
       <r>   -13.6460     0.0000   176.0000 </r>
       <r>   -13.4637     0.0000   176.0000 </r>
       <r>   -13.2814     0.0000   178.0000 </r>
       <r>   -13.0991     0.0000   180.0000 </r>
       <r>   -12.9168     0.0000   188.0000 </r>
       <r>   -12.7345     0.0000   194.0000 </r>
       <r>   -12.5522     0.0000   200.0000 </r>
       <r>   -12.3699     0.0000   206.0000 </r>
       <r>   -12.1876     0.0000   208.0000 </r>
       <r>   -12.0053     0.0000   208.0000 </r>
       <r>   -11.8230     0.0000   208.0000 </r>
       <r>   -11.6407     0.0000   208.0000 </r>
       <r>   -11.4584     0.0000   208.0000 </r>
       <r>   -11.2761     0.0000   208.0000 </r>
       <r>   -11.0938     0.0000   208.0000 </r>
       <r>   -10.9115     0.0000   208.0000 </r>
       <r>   -10.7292     0.0000   208.0000 </r>
       <r>   -10.5469     0.0000   208.0000 </r>
       <r>   -10.3646     0.0000   208.0000 </r>
       <r>   -10.1823     0.0000   208.0000 </r>
       <r>   -10.0000     0.0000   208.0000 </r>
       <r>    -9.8177     0.0000   208.0000 </r>
       <r>    -9.6354     0.0000   208.0000 </r>
       <r>    -9.4531     4.2973   208.0762 </r>
       <r>    -9.2708     4.4535   209.9200 </r>
       <r>    -9.0885    12.4053   210.9618 </r>
       <r>    -8.9062     5.5745   212.3606 </r>
       <r>    -8.7239    17.9360   215.0400 </r>
       <r>    -8.5416    22.7897   218.7961 </r>
       <r>    -8.3593    23.9123   222.4491 </r>
       <r>    -8.1770     8.6962   224.0500 </r>
       <r>    -7.9947    33.4877   230.3590 </r>
       <r>    -7.8124    14.1016   235.2417 </r>
       <r>    -7.6301    25.6330   237.7118 </r>
       <r>    -7.4478     0.0000   240.0000 </r>
       <r>    -7.2655     0.0000   240.0000 </r>
       <r>    -7.0832     0.0000   240.0000 </r>
       <r>    -6.9009     0.0000   240.0000 </r>
       <r>    -6.7186     0.0000   240.0000 </r>
       <r>    -6.5363     0.0000   240.0000 </r>
       <r>    -6.3540     3.8686   240.0681 </r>
       <r>    -6.1717    31.7215   243.6354 </r>
       <r>    -5.9894    22.3775   247.3483 </r>
       <r>    -5.8071    21.6554   250.2435 </r>
       <r>    -5.6248    21.7355   255.6297 </r>
       <r>    -5.4425    25.5060   259.5549 </r>
       <r>    -5.2602    11.5197   262.7016 </r>
       <r>    -5.0779     2.4581   263.9973 </r>
       <r>    -4.8956    12.2956   265.2457 </r>
       <r>    -4.7133     6.5130   267.3771 </r>
       <r>    -4.5310     4.3976   268.5577 </r>
       <r>    -4.3487     7.6480   269.6488 </r>
       <r>    -4.1664     5.5875   271.1935 </r>
       <r>    -3.9841     1.9336   271.7410 </r>
       <r>    -3.8018     0.6010   271.9719 </r>
       <r>    -3.6195     0.0000   272.0000 </r>
       <r>    -3.4372     0.0000   272.0000 </r>
       <r>    -3.2549     0.0000   272.0000 </r>
       <r>    -3.0726     0.0000   272.0000 </r>
       <r>    -2.8903     0.0000   272.0000 </r>
       <r>    -2.7079     0.0000   272.0000 </r>
       <r>    -2.5256     0.0000   272.0000 </r>
       <r>    -2.3433     0.0000   272.0000 </r>
       <r>    -2.1610     0.0000   272.0000 </r>
       <r>    -1.9787     0.0000   272.0000 </r>
       <r>    -1.7964     0.0000   272.0000 </r>
       <r>    -1.6141     0.0000   272.0000 </r>
       <r>    -1.4318     0.0000   272.0000 </r>
       <r>    -1.2495     8.7556   272.6387 </r>
       <r>    -1.0672     7.4961   274.0383 </r>
       <r>    -0.8849    10.1805   275.3389 </r>
       <r>    -0.7026    12.9616   277.7490 </r>
       <r>    -0.5203    14.2347   279.7068 </r>
       <r>    -0.3380    27.6868   283.8795 </r>
       <r>    -0.1557    31.2914   289.0307 </r>
       <r>     0.0266    35.3062   295.8556 </r>
       <r>     0.2089    32.2510   302.7982 </r>
       <r>     0.3912    36.8005   310.3171 </r>
       <r>     0.5735    34.1731   315.8730 </r>
       <r>     0.7558    43.7044   322.9187 </r>
       <r>     0.9381    40.2545   329.4219 </r>
       <r>     1.1204    44.6053   338.0201 </r>
       <r>     1.3027    46.5439   345.9694 </r>
       <r>     1.4850    46.2892   353.7869 </r>
       <r>     1.6673    43.6400   362.4032 </r>
       <r>     1.8496    49.2166   371.0285 </r>
       <r>     2.0319    51.8040   379.1725 </r>
       <r>     2.2142    57.3995   388.1596 </r>
       <r>     2.3965    63.9987   398.4288 </r>
       <r>     2.5788    48.8199   410.7765 </r>
       <r>     2.7611    68.2163   422.1478 </r>
       <r>     2.9434    70.6808   435.4685 </r>
       <r>     3.1257    43.9766   444.1116 </r>
       <r>     3.3080    26.6205   450.2803 </r>
       <r>     3.4903    32.8579   457.1272 </r>
       <r>     3.6726    15.2424   460.7529 </r>
       <r>     3.8549     8.6739   462.9299 </r>
       <r>     4.0372     2.1595   463.9161 </r>
       <r>     4.2195     0.0000   464.0000 </r>
       <r>     4.4018     0.0000   464.0000 </r>
       <r>     4.5841     0.0000   464.0000 </r>
       <r>     4.7664     0.0000   464.0000 </r>
       <r>     4.9487     0.0000   464.0000 </r>
       <r>     5.1310     0.1111   464.0010 </r>
       <r>     5.3133     5.3958   464.4548 </r>
       <r>     5.4956     9.9471   465.9396 </r>
       <r>     5.6779    12.2136   467.8110 </r>
       <r>     5.8602    24.9018   471.7456 </r>
       <r>     6.0425    13.4806   474.5377 </r>
       <r>     6.2248    12.7913   476.9056 </r>
       <r>     6.4071    13.9939   479.3302 </r>
       <r>     6.5894    15.6351   482.0230 </r>
       <r>     6.7717    17.3896   485.0313 </r>
       <r>     6.9540    20.6018   488.4915 </r>
       <r>     7.1363    23.1080   492.4355 </r>
       <r>     7.3186    28.5563   496.8838 </r>
       <r>     7.5009    32.7960   503.3316 </r>
       <r>     7.6832    33.1671   509.1537 </r>
       <r>     7.8655    36.0007   515.4983 </r>
       <r>     8.0478    33.1842   521.8175 </r>
       <r>     8.2301    26.9735   527.4431 </r>
       <r>     8.4124    23.8034   531.9621 </r>
       <r>     8.5947    35.1778   537.0550 </r>
       <r>     8.7770    43.9357   543.4021 </r>
       <r>     8.9593    31.2443   549.9276 </r>
       <r>     9.1416    24.3744   554.9194 </r>
       <r>     9.3239     8.4873   558.0915 </r>
       <r>     9.5062     5.6208   559.3346 </r>
       <r>     9.6885     0.0000   560.0000 </r>
       <r>     9.8708     0.0000   560.0000 </r>
       <r>    10.0531     0.0000   560.0000 </r>
       <r>    10.2354     0.0000   560.0000 </r>
       <r>    10.4177     0.0000   560.0000 </r>
       <r>    10.6000     0.0000   560.0000 </r>
       <r>    10.7823     0.0000   560.0000 </r>
       <r>    10.9646     0.0000   560.0000 </r>
       <r>    11.1469     0.0000   560.0000 </r>
       <r>    11.3292     0.0000   560.0000 </r>
       <r>    11.5115     0.0000   560.0000 </r>
       <r>    11.6938     0.0000   560.0000 </r>
       <r>    11.8761     0.0000   560.0000 </r>
       <r>    12.0584     0.0000   560.0000 </r>
      </set>
     </set>
    </array>
   </total>
  </dos>
 </calculation>
 <structure name="finalpos" >
  <crystal>
   <varray name="basis" >
    <v>      11.21365477      -0.02200011       0.00070387 </v>
    <v>      -0.01756725       9.57367998      -0.07644655 </v>
    <v>       0.00106784      -0.08941953      11.20921230 </v>
   </varray>
   <i name="volume">   1203.29455632 </i>
   <varray name="rec_basis" >
    <v>       0.08917731       0.00016358      -0.00000719 </v>
    <v>       0.00020489       0.10446007       0.00083329 </v>
    <v>      -0.00000420       0.00071240       0.08921802 </v>
   </varray>
  </crystal>
  <varray name="positions" >
   <v>       0.36875257       0.00058784       0.18461704 </v>
   <v>       0.57273557       0.01711903       0.41673622 </v>
   <v>       0.17615699      -0.03602407       0.39749864 </v>
   <v>       0.89343167       0.02967584       0.30399250 </v>
   <v>       0.14839932       0.02897260       0.97887399 </v>
   <v>       0.39873526      -0.00461726       0.93931098 </v>
   <v>       0.13606216       0.01776615       0.67466596 </v>
   <v>       0.35977780      -0.00615721       0.68582807 </v>
   <v>       0.62648021       0.00406330       0.16411108 </v>
   <v>       0.85594468       0.00177846       0.93746465 </v>
   <v>       0.61502288       0.00019947       0.70162140 </v>
   <v>       0.87343807      -0.00564851       0.67573631 </v>
   <v>      -0.00612379       0.30968949       0.05950610 </v>
   <v>       0.24862021       0.70816260       0.05980194 </v>
   <v>       0.24518765       0.28884706       0.30989386 </v>
   <v>       0.49636211       0.69779586       0.30413029 </v>
   <v>       0.49039962       0.30835766       0.06440817 </v>
   <v>       0.74747884       0.69187790       0.06281741 </v>
   <v>       0.74033870       0.31123766       0.30933621 </v>
   <v>       0.00041352       0.70084334       0.31653862 </v>
   <v>      -0.00272334       0.30806332       0.56301117 </v>
   <v>       0.24301307       0.69906667       0.56318715 </v>
   <v>       0.24279858       0.30159076       0.80993812 </v>
   <v>       0.48735085       0.69314615       0.80716247 </v>
   <v>       0.49334110       0.30285583       0.56426393 </v>
   <v>       0.74185341       0.68352997       0.56392456 </v>
   <v>       0.74509786       0.31776951       0.80961311 </v>
   <v>      -0.01173262       0.68459363       0.81355512 </v>
   <v>       0.24064900       0.33809877       0.05861754 </v>
   <v>      -0.00737974       0.67316162       0.06285311 </v>
   <v>       0.49251968       0.35520200       0.31004595 </v>
   <v>       0.24714902       0.67031517       0.31432213 </v>
   <v>       0.74110800       0.33744256       0.05956304 </v>
   <v>       0.49459834       0.64532604       0.06312448 </v>
   <v>       0.98648346       0.27947775       0.30974463 </v>
   <v>       0.74570814       0.66371015       0.31276369 </v>
   <v>       0.24196274       0.33879509       0.56078941 </v>
   <v>      -0.00859123       0.65258064       0.56611210 </v>
   <v>       0.49226602       0.33972473       0.80891006 </v>
   <v>       0.24440548       0.65339715       0.81434471 </v>
   <v>       0.74145627       0.34438303       0.56164877 </v>
   <v>       0.49453251       0.65136597       0.56494870 </v>
   <v>       0.98915264       0.36378783       0.81121979 </v>
   <v>       0.74143943       0.63585802       0.81459155 </v>
   <v>       0.49390508       0.09124235       0.07242947 </v>
   <v>       0.27500078       0.91850508       0.04562810 </v>
   <v>       0.26966098       0.08236403       0.30466290 </v>
   <v>       0.01432468       0.90852769       0.33813274 </v>
   <v>       0.98989590       0.10006031       0.01682929 </v>
   <v>       0.74342818       0.91179782       0.05286180 </v>
   <v>       0.72073673       0.09343988       0.29856198 </v>
   <v>       0.51392333       0.91179093       0.27889777 </v>
   <v>       0.51372274       0.08623327       0.57613004 </v>
   <v>       0.23920922       0.91257325       0.57119110 </v>
   <v>       0.24307585       0.08525721       0.80823407 </v>
   <v>      -0.04810782       0.90090423       0.81081697 </v>
   <v>      -0.00107753       0.09840251       0.60082877 </v>
   <v>       0.73560018       0.90009848       0.59969578 </v>
   <v>       0.75647989       0.08891416       0.79669745 </v>
   <v>       0.48536907       0.91250927       0.79585706 </v>
  </varray>
 </structure>
</modeling>
