<?xml version="1.0" encoding="ISO-8859-1"?>
<modeling>
 <generator>
  <i name="program" type="string">vasp </i>
  <i name="version" type="string">5.4.4.18Apr17-6-g9f103f2a35  </i>
  <i name="subversion" type="string">(build Jul 31 2017 11:33:29) complex            parallel </i>
  <i name="platform" type="string">LinuxIFC </i>
  <i name="date" type="string">2021 09 24 </i>
  <i name="time" type="string">18:59:03 </i>
 </generator>
 <incar>
  <i type="string" name="SYSTEM"> La2O2S</i>
  <i type="string" name="PREC">normal</i>
  <i type="int" name="NELMIN">     4</i>
  <i type="int" name="IBRION">     2</i>
  <i type="int" name="NFREE">    10</i>
  <i name="EDIFF">      0.00000100</i>
  <i name="EDIFFG">     -0.01000000</i>
  <i type="int" name="NSW">   200</i>
  <i type="int" name="ISIF">     3</i>
  <i name="ENCUT">    600.00000000</i>
  <i name="ENAUG">    900.00000000</i>
  <i type="int" name="ISMEAR">    -5</i>
  <i type="logical" name="LWAVE"> F  </i>
  <i type="logical" name="LCHARG"> F  </i>
  <v type="int" name="KPOINT_BSE">    -1     0     0     0</v>
 </incar>
 <structure name="primitive_cell" >
  <crystal>
   <varray name="basis" >
    <v>      11.17850000       0.00000000       0.00000000 </v>
    <v>       0.00000000       9.57460000       0.00000000 </v>
    <v>       0.00000000       0.00000000      11.18240000 </v>
   </varray>
   <i name="volume">   1196.84853820 </i>
   <varray name="rec_basis" >
    <v>       0.08945744       0.00000000       0.00000000 </v>
    <v>       0.00000000       0.10444301       0.00000000 </v>
    <v>       0.00000000       0.00000000       0.08942624 </v>
   </varray>
  </crystal>
  <varray name="positions" >
   <v>       0.37539000       0.00017000       0.43687000 </v>
   <v>      -0.49987000      -0.07798000       0.31246000 </v>
   <v>       0.25013000       0.07798000       0.31246000 </v>
   <v>       0.49987000       0.07798000      -0.43754000 </v>
   <v>       0.24987000      -0.07798000      -0.43754000 </v>
   <v>      -0.37461000      -0.00016000       0.43687000 </v>
   <v>       0.37461000       0.00017000      -0.31313000 </v>
   <v>       0.49987000      -0.29519000       0.31282000 </v>
   <v>       0.24987000       0.29519000       0.31282000 </v>
   <v>      -0.49987000       0.29519000      -0.43719000 </v>
   <v>       0.25013000      -0.29519000      -0.43719000 </v>
   <v>       0.49995000       0.32677000       0.31286000 </v>
   <v>       0.24995000      -0.32677000       0.31286000 </v>
   <v>      -0.49995000      -0.32677000      -0.43714000 </v>
   <v>       0.25005000       0.32677000      -0.43714000 </v>
   <v>      -0.37539000      -0.00016000       0.18687000 </v>
   <v>      -0.37539000      -0.00016000      -0.31313000 </v>
   <v>       0.12461000      -0.00016000       0.18687000 </v>
   <v>       0.12461000      -0.00016000      -0.31313000 </v>
   <v>       0.49987000       0.07798000       0.06246000 </v>
   <v>      -0.24987000       0.07798000       0.31246000 </v>
   <v>      -0.25013000      -0.07798000      -0.43754000 </v>
   <v>       0.24987000      -0.07798000       0.06246000 </v>
   <v>       0.00013000      -0.07798000       0.31246000 </v>
   <v>      -0.49987000      -0.07798000      -0.18754000 </v>
   <v>      -0.00013000       0.07798000      -0.43754000 </v>
   <v>       0.25013000       0.07798000      -0.18754000 </v>
   <v>      -0.49987000       0.29519000       0.06281000 </v>
   <v>      -0.25013000       0.29519000       0.31282000 </v>
   <v>       0.25013000      -0.29519000       0.06281000 </v>
   <v>      -0.24987000      -0.29519000      -0.43719000 </v>
   <v>      -0.00013000      -0.29519000       0.31282000 </v>
   <v>       0.00013000       0.29519000      -0.43719000 </v>
   <v>       0.49987000      -0.29519000      -0.18718000 </v>
   <v>       0.24987000       0.29519000      -0.18718000 </v>
   <v>      -0.49995000      -0.32677000       0.06286000 </v>
   <v>       0.25005000       0.32677000       0.06286000 </v>
   <v>      -0.25005000      -0.32677000       0.31286000 </v>
   <v>      -0.24995000       0.32677000      -0.43714000 </v>
   <v>      -0.00005000       0.32677000       0.31286000 </v>
   <v>       0.00005000      -0.32677000      -0.43714000 </v>
   <v>       0.49995000       0.32677000      -0.18714000 </v>
   <v>       0.24995000      -0.32677000      -0.18714000 </v>
   <v>      -0.12461000       0.00017000       0.43687000 </v>
   <v>       0.37539000       0.00017000      -0.06313000 </v>
   <v>      -0.25013000      -0.07798000       0.06246000 </v>
   <v>      -0.00013000       0.07798000       0.06246000 </v>
   <v>      -0.24987000       0.07798000      -0.18754000 </v>
   <v>       0.00013000      -0.07798000      -0.18754000 </v>
   <v>      -0.12539000       0.00017000       0.18687000 </v>
   <v>      -0.12539000       0.00017000      -0.31313000 </v>
   <v>      -0.37461000      -0.00016000      -0.06313000 </v>
   <v>       0.12539000      -0.00016000      -0.06313000 </v>
   <v>      -0.24987000      -0.29519000       0.06281000 </v>
   <v>       0.00013000       0.29519000       0.06281000 </v>
   <v>      -0.25013000       0.29519000      -0.18718000 </v>
   <v>      -0.00013000      -0.29519000      -0.18718000 </v>
   <v>      -0.24995000       0.32677000       0.06286000 </v>
   <v>       0.00005000      -0.32677000       0.06286000 </v>
   <v>      -0.25005000      -0.32677000      -0.18714000 </v>
   <v>      -0.00005000       0.32677000      -0.18714000 </v>
   <v>      -0.12461000       0.00017000      -0.06313000 </v>
  </varray>
 </structure>
 <varray name="primitive_index" >
  <v type="int" >        1 </v>
  <v type="int" >       54 </v>
  <v type="int" >       49 </v>
  <v type="int" >       55 </v>
  <v type="int" >       56 </v>
  <v type="int" >        3 </v>
  <v type="int" >        9 </v>
  <v type="int" >       18 </v>
  <v type="int" >       17 </v>
  <v type="int" >       27 </v>
  <v type="int" >       24 </v>
  <v type="int" >       33 </v>
  <v type="int" >       34 </v>
  <v type="int" >       44 </v>
  <v type="int" >       39 </v>
  <v type="int" >        5 </v>
  <v type="int" >       14 </v>
  <v type="int" >        2 </v>
  <v type="int" >        8 </v>
  <v type="int" >       47 </v>
  <v type="int" >       53 </v>
  <v type="int" >       60 </v>
  <v type="int" >       48 </v>
  <v type="int" >       50 </v>
  <v type="int" >       62 </v>
  <v type="int" >       59 </v>
  <v type="int" >       57 </v>
  <v type="int" >       19 </v>
  <v type="int" >       21 </v>
  <v type="int" >       16 </v>
  <v type="int" >       28 </v>
  <v type="int" >       22 </v>
  <v type="int" >       23 </v>
  <v type="int" >       26 </v>
  <v type="int" >       25 </v>
  <v type="int" >       36 </v>
  <v type="int" >       31 </v>
  <v type="int" >       38 </v>
  <v type="int" >       43 </v>
  <v type="int" >       37 </v>
  <v type="int" >       40 </v>
  <v type="int" >       41 </v>
  <v type="int" >       42 </v>
  <v type="int" >        4 </v>
  <v type="int" >        7 </v>
  <v type="int" >       52 </v>
  <v type="int" >       51 </v>
  <v type="int" >       61 </v>
  <v type="int" >       58 </v>
  <v type="int" >        6 </v>
  <v type="int" >       12 </v>
  <v type="int" >       10 </v>
  <v type="int" >       13 </v>
  <v type="int" >       20 </v>
  <v type="int" >       15 </v>
  <v type="int" >       29 </v>
  <v type="int" >       30 </v>
  <v type="int" >       35 </v>
  <v type="int" >       32 </v>
  <v type="int" >       46 </v>
  <v type="int" >       45 </v>
  <v type="int" >       11 </v>
 </varray>
 <kpoints>
  <generation param="Gamma">
   <v type="int" name="divisions">       2        2        2 </v>
   <v name="usershift">      0.00000000       0.00000000       0.00000000 </v>
   <v name="genvec1">      0.50000000       0.00000000       0.00000000 </v>
   <v name="genvec2">      0.00000000       0.50000000       0.00000000 </v>
   <v name="genvec3">      0.00000000       0.00000000       0.50000000 </v>
   <v name="shift">      0.00000000       0.00000000       0.00000000 </v>
  </generation>
  <varray name="kpointlist" >
   <v>       0.00000000       0.00000000       0.00000000 </v>
   <v>       0.50000000       0.00000000       0.00000000 </v>
   <v>       0.00000000       0.50000000       0.00000000 </v>
   <v>       0.50000000       0.50000000       0.00000000 </v>
   <v>       0.00000000       0.00000000       0.50000000 </v>
   <v>       0.50000000       0.00000000       0.50000000 </v>
   <v>       0.00000000       0.50000000       0.50000000 </v>
   <v>       0.50000000       0.50000000       0.50000000 </v>
  </varray>
  <varray name="weights" >
   <v>       0.12500000 </v>
   <v>       0.12500000 </v>
   <v>       0.12500000 </v>
   <v>       0.12500000 </v>
   <v>       0.12500000 </v>
   <v>       0.12500000 </v>
   <v>       0.12500000 </v>
   <v>       0.12500000 </v>
  </varray>
  <varray name="tetrahedronlist"  type="int" >
   <v type="int" >        2        1        2        4        5 </v>
   <v type="int" >        2        1        3        4        5 </v>
   <v type="int" >        2        3        4        5        7 </v>
   <v type="int" >        2        2        4        5        6 </v>
   <v type="int" >        2        4        5        6        8 </v>
   <v type="int" >        2        4        5        7        8 </v>
   <v type="int" >        2        1        2        3        6 </v>
   <v type="int" >        2        2        3        4        6 </v>
   <v type="int" >        2        3        4        6        8 </v>
   <v type="int" >        2        1        3        5        6 </v>
   <v type="int" >        2        3        5        6        7 </v>
   <v type="int" >        2        3        6        7        8 </v>
   <v type="int" >        2        2        3        4        7 </v>
   <v type="int" >        2        1        2        3        7 </v>
   <v type="int" >        2        1        2        5        7 </v>
   <v type="int" >        2        2        4        7        8 </v>
   <v type="int" >        2        2        6        7        8 </v>
   <v type="int" >        2        2        5        6        7 </v>
   <v type="int" >        2        1        3        4        8 </v>
   <v type="int" >        2        1        2        4        8 </v>
   <v type="int" >        2        1        2        6        8 </v>
   <v type="int" >        2        1        3        7        8 </v>
   <v type="int" >        2        1        5        7        8 </v>
   <v type="int" >        2        1        5        6        8 </v>
  </varray>
  <i name="volumeweight">      0.02083333 </i>
 </kpoints>
 <parameters>
  <separator name="general" >
   <i type="string" name="SYSTEM">La2O2S</i>
   <i type="logical" name="LCOMPAT"> F  </i>
  </separator>
  <separator name="electronic" >
   <i type="string" name="PREC">normal</i>
   <i name="ENMAX">    600.00000000</i>
   <i name="ENAUG">    900.00000000</i>
   <i name="EDIFF">      0.00000100</i>
   <i type="int" name="IALGO">    38</i>
   <i type="int" name="IWAVPR">    11</i>
   <i type="int" name="NBANDS">   308</i>
   <i name="NELECT">    472.00000000</i>
   <i type="int" name="TURBO">     0</i>
   <i type="int" name="IRESTART">     0</i>
   <i type="int" name="NREBOOT">     0</i>
   <i type="int" name="NMIN">     0</i>
   <i name="EREF">      0.00000000</i>
   <separator name="electronic smearing" >
    <i type="int" name="ISMEAR">    -5</i>
    <i name="SIGMA">      0.20000000</i>
    <i name="KSPACING">      0.50000000</i>
    <i type="logical" name="KGAMMA"> T  </i>
   </separator>
   <separator name="electronic projectors" >
    <i type="logical" name="LREAL"> F  </i>
    <v name="ROPT">      0.00000000      0.00000000      0.00000000      0.00000000      0.00000000</v>
    <i type="int" name="LMAXPAW">  -100</i>
    <i type="int" name="LMAXMIX">     2</i>
    <i type="logical" name="NLSPLINE"> F  </i>
   </separator>
   <separator name="electronic startup" >
    <i type="int" name="ISTART">     0</i>
    <i type="int" name="ICHARG">     2</i>
    <i type="int" name="INIWAV">     1</i>
   </separator>
   <separator name="electronic spin" >
    <i type="int" name="ISPIN">     1</i>
    <i type="logical" name="LNONCOLLINEAR"> F  </i>
    <v name="MAGMOM">      1.00000000      1.00000000      1.00000000      1.00000000      1.00000000      1.00000000      1.00000000      1.00000000      1.00000000      1.00000000      1.00000000      1.00000000      1.00000000      1.00000000      1.00000000      1.00000000      1.00000000      1.00000000      1.00000000      1.00000000
      1.00000000      1.00000000      1.00000000      1.00000000      1.00000000      1.00000000      1.00000000      1.00000000      1.00000000      1.00000000      1.00000000      1.00000000      1.00000000      1.00000000      1.00000000      1.00000000      1.00000000      1.00000000      1.00000000      1.00000000
      1.00000000      1.00000000      1.00000000      1.00000000      1.00000000      1.00000000      1.00000000      1.00000000      1.00000000      1.00000000      1.00000000      1.00000000      1.00000000      1.00000000      1.00000000      1.00000000      1.00000000      1.00000000      1.00000000      1.00000000
      1.00000000      1.00000000</v>
    <i name="NUPDOWN">     -1.00000000</i>
    <i type="logical" name="LSORBIT"> F  </i>
    <v name="SAXIS">      0.00000000      0.00000000      1.00000000</v>
    <i type="logical" name="LSPIRAL"> F  </i>
    <v name="QSPIRAL">      0.00000000      0.00000000      0.00000000</v>
    <i type="logical" name="LZEROZ"> F  </i>
   </separator>
   <separator name="electronic exchange-correlation" >
    <i type="logical" name="LASPH"> F  </i>
    <i type="logical" name="LMETAGGA"> F  </i>
   </separator>
   <separator name="electronic convergence" >
    <i type="int" name="NELM">    60</i>
    <i type="int" name="NELMDL">    -5</i>
    <i type="int" name="NELMIN">     4</i>
    <i name="ENINI">    600.00000000</i>
    <separator name="electronic convergence detail" >
     <i type="logical" name="LDIAG"> T  </i>
     <i type="logical" name="LSUBROT"> F  </i>
     <i name="WEIMIN">      0.00100000</i>
     <i name="EBREAK">      0.00000000</i>
     <i name="DEPER">      0.30000000</i>
     <i type="int" name="NRMM">     4</i>
     <i name="TIME">      0.40000000</i>
    </separator>
   </separator>
   <separator name="electronic mixer" >
    <i name="AMIX">      0.40000000</i>
    <i name="BMIX">      1.00000000</i>
    <i name="AMIN">      0.10000000</i>
    <i name="AMIX_MAG">      1.60000000</i>
    <i name="BMIX_MAG">      1.00000000</i>
    <separator name="electronic mixer details" >
     <i type="int" name="IMIX">     4</i>
     <i type="logical" name="MIXFIRST"> F  </i>
     <i type="int" name="MAXMIX">   -45</i>
     <i name="WC">    100.00000000</i>
     <i type="int" name="INIMIX">     1</i>
     <i type="int" name="MIXPRE">     1</i>
     <i type="int" name="MREMOVE">     5</i>
    </separator>
   </separator>
   <separator name="electronic dipolcorrection" >
    <i type="logical" name="LDIPOL"> F  </i>
    <i type="logical" name="LMONO"> F  </i>
    <i type="int" name="IDIPOL">     0</i>
    <i name="EPSILON">      1.00000000</i>
    <v name="DIPOL">   -100.00000000   -100.00000000   -100.00000000</v>
    <i name="EFIELD">      0.00000000</i>
   </separator>
  </separator>
  <separator name="grids" >
   <i type="int" name="NGX">    70</i>
   <i type="int" name="NGY">    60</i>
   <i type="int" name="NGZ">    70</i>
   <i type="int" name="NGXF">   140</i>
   <i type="int" name="NGYF">   120</i>
   <i type="int" name="NGZF">   140</i>
   <i type="logical" name="ADDGRID"> F  </i>
  </separator>
  <separator name="ionic" >
   <i type="int" name="NSW">   200</i>
   <i type="int" name="IBRION">     2</i>
   <i type="int" name="MDALGO">     0</i>
   <i type="int" name="ISIF">     3</i>
   <i name="PSTRESS">      0.00000000</i>
   <i name="EDIFFG">     -0.01000000</i>
   <i type="int" name="NFREE">    10</i>
   <i name="POTIM">      0.50000000</i>
   <i name="SMASS">     -3.00000000</i>
   <i name="SCALEE">      1.00000000</i>
  </separator>
  <separator name="ionic md" >
   <i name="TEBEG">      0.00010000</i>
   <i name="TEEND">      0.00010000</i>
   <i type="int" name="NBLOCK">     1</i>
   <i type="int" name="KBLOCK">   200</i>
   <i type="int" name="NPACO">   256</i>
   <i name="APACO">     16.00000000</i>
  </separator>
  <separator name="symmetry" >
   <i type="int" name="ISYM">     2</i>
   <i name="SYMPREC">      0.00001000</i>
  </separator>
  <separator name="dos" >
   <i type="int" name="LORBIT">     0</i>
   <v name="RWIGS">     -1.00000000     -1.00000000     -1.00000000     -1.00000000     -1.00000000</v>
   <i type="int" name="NEDOS">   301</i>
   <i name="EMIN">     10.00000000</i>
   <i name="EMAX">    -10.00000000</i>
   <i name="EFERMI">      0.00000000</i>
  </separator>
  <separator name="writing" >
   <i type="int" name="NWRITE">     2</i>
   <i type="logical" name="LWAVE"> F  </i>
   <i type="logical" name="LDOWNSAMPLE"> F  </i>
   <i type="logical" name="LCHARG"> F  </i>
   <i type="logical" name="LPARD"> F  </i>
   <i type="logical" name="LVTOT"> F  </i>
   <i type="logical" name="LVHAR"> F  </i>
   <i type="logical" name="LELF"> F  </i>
   <i type="logical" name="LOPTICS"> F  </i>
   <v name="STM">      0.00000000      0.00000000      0.00000000      0.00000000      0.00000000      0.00000000      0.00000000</v>
  </separator>
  <separator name="performance" >
   <i type="int" name="NPAR">    28</i>
   <i type="int" name="NSIM">     4</i>
   <i type="int" name="NBLK">    -1</i>
   <i type="logical" name="LPLANE"> T  </i>
   <i type="logical" name="LSCALAPACK"> T  </i>
   <i type="logical" name="LSCAAWARE"> F  </i>
   <i type="logical" name="LSCALU"> F  </i>
   <i type="logical" name="LASYNC"> F  </i>
   <i type="logical" name="LORBITALREAL"> F  </i>
  </separator>
  <separator name="miscellaneous" >
   <i type="int" name="IDIOT">     3</i>
   <i type="int" name="ISPECIAL">     0</i>
   <i type="logical" name="LMUSIC"> F  </i>
   <v name="POMASS">      7.01000000     24.30500000    208.98000000     32.06600000     16.00000000</v>
   <v name="DARWINR">      0.00000000      0.00000000      0.00000000      0.00000000      0.00000000</v>
   <v name="DARWINV">      1.00000000      1.00000000      1.00000000      1.00000000      1.00000000</v>
   <i type="logical" name="LCORR"> T  </i>
  </separator>
  <i type="logical" name="GGA_COMPAT"> T  </i>
  <i type="logical" name="LBERRY"> F  </i>
  <i type="int" name="ICORELEVEL">     0</i>
  <i type="logical" name="LDAU"> F  </i>
  <i type="int" name="I_CONSTRAINED_M">     0</i>
  <separator name="electronic exchange-correlation" >
   <i type="string" name="GGA">--</i>
   <i type="int" name="VOSKOWN">     0</i>
   <i type="logical" name="LHFCALC"> F  </i>
   <i type="string" name="PRECFOCK"></i>
   <i type="logical" name="LSYMGRAD"> F  </i>
   <i type="logical" name="LHFONE"> F  </i>
   <i type="logical" name="LRHFCALC"> F  </i>
   <i type="logical" name="LTHOMAS"> F  </i>
   <i type="logical" name="LMODELHF"> F  </i>
   <i name="ENCUT4O">     -1.00000000</i>
   <i type="int" name="EXXOEP">     0</i>
   <i type="int" name="FOURORBIT">     0</i>
   <i name="AEXX">      0.00000000</i>
   <i name="HFALPHA">      0.00000000</i>
   <i name="MCALPHA">      0.00000000</i>
   <i name="ALDAX">      1.00000000</i>
   <i name="AGGAX">      1.00000000</i>
   <i name="ALDAC">      1.00000000</i>
   <i name="AGGAC">      1.00000000</i>
   <i type="int" name="NKREDX">     1</i>
   <i type="int" name="NKREDY">     1</i>
   <i type="int" name="NKREDZ">     1</i>
   <i type="logical" name="SHIFTRED"> F  </i>
   <i type="logical" name="ODDONLY"> F  </i>
   <i type="logical" name="EVENONLY"> F  </i>
   <i type="int" name="LMAXFOCK">     0</i>
   <i type="int" name="NMAXFOCKAE">     0</i>
   <i type="logical" name="LFOCKAEDFT"> F  </i>
   <i name="HFSCREEN">      0.00000000</i>
   <i name="HFSCREENC">      0.00000000</i>
   <i type="int" name="NBANDSGWLOW">     0</i>
  </separator>
  <separator name="vdW DFT" >
   <i type="logical" name="LUSE_VDW"> F  </i>
   <i name="Zab_VDW">     -0.84910000</i>
   <i name="PARAM1">      0.12340000</i>
   <i name="PARAM2">      1.00000000</i>
   <i name="PARAM3">      0.00000000</i>
  </separator>
  <separator name="model GW" >
   <i type="int" name="MODEL_GW">     0</i>
   <i name="MODEL_EPS0">     11.58240521</i>
   <i name="MODEL_ALPHA">      1.00000000</i>
  </separator>
  <separator name="linear response parameters" >
   <i type="logical" name="LEPSILON"> F  </i>
   <i type="logical" name="LRPA"> F  </i>
   <i type="logical" name="LNABLA"> F  </i>
   <i type="logical" name="LVEL"> F  </i>
   <i type="int" name="KINTER">     0</i>
   <i name="CSHIFT">      0.10000000</i>
   <i name="OMEGAMAX">     -1.00000000</i>
   <i name="DEG_THRESHOLD">      0.00200000</i>
   <i name="RTIME">     -0.10000000</i>
   <i name="WPLASMAI">      0.00000000</i>
   <v name="DFIELD">      0.00000000      0.00000000      0.00000000</v>
   <v name="WPLASMA">      0.00000000      0.00000000      0.00000000      0.00000000      0.00000000      0.00000000      0.00000000      0.00000000      0.00000000</v>
  </separator>
  <separator name="orbital magnetization" >
   <i type="logical" name="NUCIND"> F  </i>
   <v name="MAGPOS">      0.00000000      0.00000000      0.00000000</v>
   <i type="logical" name="LNICSALL"> T  </i>
   <i type="logical" name="ORBITALMAG"> F  </i>
   <i type="logical" name="LMAGBLOCH"> F  </i>
   <i type="logical" name="LCHIMAG"> F  </i>
   <i type="logical" name="LGAUGE"> T  </i>
   <i type="int" name="MAGATOM">     0</i>
   <v name="MAGDIPOL">      0.00000000      0.00000000      0.00000000</v>
   <v name="AVECCONST">      0.00000000      0.00000000      0.00000000</v>
  </separator>
  <separator name="response functions" >
   <i type="logical" name="LADDER"> F  </i>
   <i type="logical" name="LRPAFORCE"> F  </i>
   <i type="logical" name="LFXC"> F  </i>
   <i type="logical" name="LHARTREE"> T  </i>
   <i type="int" name="IBSE">     0</i>
   <v type="int" name="KPOINT">    -1     0     0     0</v>
   <i type="logical" name="LTCTE"> F  </i>
   <i type="logical" name="LTETE"> F  </i>
   <i type="logical" name="LTRIPLET"> F  </i>
   <i type="logical" name="LFXCEPS"> F  </i>
   <i type="logical" name="LFXHEG"> F  </i>
   <i type="int" name="NATURALO">     2</i>
   <i type="logical" name="L2ORDER"> F  </i>
   <i type="logical" name="LMP2LT"> F  </i>
   <i type="logical" name="LUSEW"> F  </i>
   <i name="ENCUTGW">     -2.00000000</i>
   <i name="ENCUTGWSOFT">     -2.00000000</i>
   <i name="ENCUTLF">     -1.00000000</i>
   <i type="int" name="LMAXMP2">    -1</i>
   <i name="SCISSOR">      0.00000000</i>
   <i type="int" name="NOMEGA">     0</i>
   <i type="int" name="NOMEGAR">     0</i>
   <i type="int" name="NBANDSGW">    -1</i>
   <i type="int" name="NBANDSO">    -1</i>
   <i type="int" name="NBANDSV">    -1</i>
   <i type="int" name="NELM">     1</i>
   <i type="int" name="NELMHF">     1</i>
   <i type="int" name="DIM">     3</i>
   <i type="int" name="ANTIRES">     0</i>
   <i name="OMEGAMAX">    -30.00000000</i>
   <i name="OMEGAMIN">    -30.00000000</i>
   <i name="OMEGATL">   -200.00000000</i>
   <i type="int" name="OMEGAGRID">   140</i>
   <i name="CSHIFT">     -0.10000000</i>
   <i type="logical" name="SELFENERGY"> F  </i>
   <i type="logical" name="LSPECTRAL"> F  </i>
   <i type="logical" name="LSPECTRALGW"> F  </i>
   <i type="logical" name="LSINGLES"> F  </i>
   <i type="logical" name="LFERMIGW"> F  </i>
   <i type="logical" name="ODDONLYGW"> F  </i>
   <i type="logical" name="EVENONLYGW"> F  </i>
   <i type="int" name="NKREDLFX">     1</i>
   <i type="int" name="NKREDLFY">     1</i>
   <i type="int" name="NKREDLFZ">     1</i>
   <i type="int" name="MAXMEM">  2800</i>
   <i type="int" name="TELESCOPE">     0</i>
   <i type="int" name="TAUPAR">     1</i>
   <i type="int" name="OMEGAPAR">    -1</i>
   <i name="LAMBDA">      1.00000000</i>
  </separator>
  <separator name="External order field" >
   <i name="OFIELD_KAPPA">      0.00000000</i>
   <v name="OFIELD_K">      0.00000000      0.00000000      0.00000000</v>
   <i name="OFIELD_Q6_NEAR">      0.00000000</i>
   <i name="OFIELD_Q6_FAR">      0.00000000</i>
   <i name="OFIELD_A">      0.00000000</i>
  </separator>
 </parameters>
 <atominfo>
  <atoms>      62 </atoms>
  <types>       5 </types>
  <array name="atoms" >
   <dimension dim="1">ion</dimension>
   <field type="string">element</field>
   <field type="int">atomtype</field>
   <set>
    <rc><c>Li</c><c>   1</c></rc>
    <rc><c>Li</c><c>   1</c></rc>
    <rc><c>Li</c><c>   1</c></rc>
    <rc><c>Li</c><c>   1</c></rc>
    <rc><c>Li</c><c>   1</c></rc>
    <rc><c>Li</c><c>   1</c></rc>
    <rc><c>Li</c><c>   1</c></rc>
    <rc><c>Li</c><c>   1</c></rc>
    <rc><c>Li</c><c>   1</c></rc>
    <rc><c>Li</c><c>   1</c></rc>
    <rc><c>Li</c><c>   1</c></rc>
    <rc><c>Li</c><c>   1</c></rc>
    <rc><c>Mg</c><c>   2</c></rc>
    <rc><c>Mg</c><c>   2</c></rc>
    <rc><c>Bi</c><c>   3</c></rc>
    <rc><c>Bi</c><c>   3</c></rc>
    <rc><c>Bi</c><c>   3</c></rc>
    <rc><c>Bi</c><c>   3</c></rc>
    <rc><c>Bi</c><c>   3</c></rc>
    <rc><c>Bi</c><c>   3</c></rc>
    <rc><c>Bi</c><c>   3</c></rc>
    <rc><c>Bi</c><c>   3</c></rc>
    <rc><c>Bi</c><c>   3</c></rc>
    <rc><c>Bi</c><c>   3</c></rc>
    <rc><c>Bi</c><c>   3</c></rc>
    <rc><c>Bi</c><c>   3</c></rc>
    <rc><c>Bi</c><c>   3</c></rc>
    <rc><c>Bi</c><c>   3</c></rc>
    <rc><c>Bi</c><c>   3</c></rc>
    <rc><c>Bi</c><c>   3</c></rc>
    <rc><c>S </c><c>   4</c></rc>
    <rc><c>S </c><c>   4</c></rc>
    <rc><c>S </c><c>   4</c></rc>
    <rc><c>S </c><c>   4</c></rc>
    <rc><c>S </c><c>   4</c></rc>
    <rc><c>S </c><c>   4</c></rc>
    <rc><c>S </c><c>   4</c></rc>
    <rc><c>S </c><c>   4</c></rc>
    <rc><c>S </c><c>   4</c></rc>
    <rc><c>S </c><c>   4</c></rc>
    <rc><c>S </c><c>   4</c></rc>
    <rc><c>S </c><c>   4</c></rc>
    <rc><c>S </c><c>   4</c></rc>
    <rc><c>S </c><c>   4</c></rc>
    <rc><c>S </c><c>   4</c></rc>
    <rc><c>S </c><c>   4</c></rc>
    <rc><c>O </c><c>   5</c></rc>
    <rc><c>O </c><c>   5</c></rc>
    <rc><c>O </c><c>   5</c></rc>
    <rc><c>O </c><c>   5</c></rc>
    <rc><c>O </c><c>   5</c></rc>
    <rc><c>O </c><c>   5</c></rc>
    <rc><c>O </c><c>   5</c></rc>
    <rc><c>O </c><c>   5</c></rc>
    <rc><c>O </c><c>   5</c></rc>
    <rc><c>O </c><c>   5</c></rc>
    <rc><c>O </c><c>   5</c></rc>
    <rc><c>O </c><c>   5</c></rc>
    <rc><c>O </c><c>   5</c></rc>
    <rc><c>O </c><c>   5</c></rc>
    <rc><c>O </c><c>   5</c></rc>
    <rc><c>O </c><c>   5</c></rc>
   </set>
  </array>
  <array name="atomtypes" >
   <dimension dim="1">type</dimension>
   <field type="int">atomspertype</field>
   <field type="string">element</field>
   <field>mass</field>
   <field>valence</field>
   <field type="string">pseudopotential</field>
   <set>
    <rc><c>  12</c><c>Li</c><c>      7.01000000</c><c>      3.00000000</c><c>  PAW_PBE Li_sv 10Sep2004               </c></rc>
    <rc><c>   2</c><c>Mg</c><c>     24.30500000</c><c>      2.00000000</c><c>  PAW_PBE Mg 13Apr2007                  </c></rc>
    <rc><c>  16</c><c>Bi</c><c>    208.98000000</c><c>     15.00000000</c><c>  PAW_PBE Bi_d 06Sep2000                </c></rc>
    <rc><c>  16</c><c>S </c><c>     32.06600000</c><c>      6.00000000</c><c>  PAW_PBE S 06Sep2000                   </c></rc>
    <rc><c>  16</c><c>O </c><c>     16.00000000</c><c>      6.00000000</c><c>  PAW_PBE O 08Apr2002                   </c></rc>
   </set>
  </array>
 </atominfo>
 <structure name="initialpos" >
  <crystal>
   <varray name="basis" >
    <v>      11.17850000       0.00000000       0.00000000 </v>
    <v>       0.00000000       9.57460000       0.00000000 </v>
    <v>       0.00000000       0.00000000      11.18240000 </v>
   </varray>
   <i name="volume">   1196.84853820 </i>
   <varray name="rec_basis" >
    <v>       0.08945744       0.00000000       0.00000000 </v>
    <v>       0.00000000       0.10444301       0.00000000 </v>
    <v>       0.00000000       0.00000000       0.08942624 </v>
   </varray>
  </crystal>
  <varray name="positions" >
   <v>       0.37539000       0.00017000       0.43687000 </v>
   <v>       0.12461000       0.99984000       0.18687000 </v>
   <v>       0.62539000       0.99984000       0.43687000 </v>
   <v>       0.87539000       0.00017000       0.43687000 </v>
   <v>       0.62461000       0.99984000       0.18687000 </v>
   <v>       0.87461000       0.00017000       0.18687000 </v>
   <v>       0.37539000       0.00017000       0.93687000 </v>
   <v>       0.12461000       0.99984000       0.68687000 </v>
   <v>       0.37461000       0.00017000       0.68687000 </v>
   <v>       0.62539000       0.99984000       0.93687000 </v>
   <v>       0.87539000       0.00017000       0.93687000 </v>
   <v>       0.87461000       0.00017000       0.68687000 </v>
   <v>       0.12539000       0.99984000       0.93687000 </v>
   <v>       0.62461000       0.99984000       0.68687000 </v>
   <v>       0.00013000       0.29519000       0.06281000 </v>
   <v>       0.25013000       0.70481000       0.06281000 </v>
   <v>       0.24987000       0.29519000       0.31282000 </v>
   <v>       0.49987000       0.70481000       0.31282000 </v>
   <v>       0.50013000       0.29519000       0.06281000 </v>
   <v>       0.75013000       0.70481000       0.06281000 </v>
   <v>       0.74987000       0.29519000       0.31282000 </v>
   <v>       0.99987000       0.70481000       0.31282000 </v>
   <v>       0.00013000       0.29519000       0.56281000 </v>
   <v>       0.25013000       0.70481000       0.56281000 </v>
   <v>       0.24987000       0.29519000       0.81282000 </v>
   <v>       0.49987000       0.70481000       0.81282000 </v>
   <v>       0.50013000       0.29519000       0.56281000 </v>
   <v>       0.75013000       0.70481000       0.56281000 </v>
   <v>       0.74987000       0.29519000       0.81282000 </v>
   <v>       0.99987000       0.70481000       0.81282000 </v>
   <v>       0.25005000       0.32677000       0.06286000 </v>
   <v>       0.00005000       0.67323000       0.06286000 </v>
   <v>       0.49995000       0.32677000       0.31286000 </v>
   <v>       0.24995000       0.67323000       0.31286000 </v>
   <v>       0.75005000       0.32677000       0.06286000 </v>
   <v>       0.50005000       0.67323000       0.06286000 </v>
   <v>       0.99995000       0.32677000       0.31286000 </v>
   <v>       0.74995000       0.67323000       0.31286000 </v>
   <v>       0.25005000       0.32677000       0.56286000 </v>
   <v>       0.00005000       0.67323000       0.56286000 </v>
   <v>       0.49995000       0.32677000       0.81286000 </v>
   <v>       0.24995000       0.67323000       0.81286000 </v>
   <v>       0.75005000       0.32677000       0.56286000 </v>
   <v>       0.50005000       0.67323000       0.56286000 </v>
   <v>       0.99995000       0.32677000       0.81286000 </v>
   <v>       0.74995000       0.67323000       0.81286000 </v>
   <v>       0.49987000       0.07798000       0.06246000 </v>
   <v>       0.24987000       0.92202000       0.06246000 </v>
   <v>       0.25013000       0.07798000       0.31246000 </v>
   <v>       0.00013000       0.92202000       0.31246000 </v>
   <v>       0.99987000       0.07798000       0.06246000 </v>
   <v>       0.74987000       0.92202000       0.06246000 </v>
   <v>       0.75013000       0.07798000       0.31246000 </v>
   <v>       0.50013000       0.92202000       0.31246000 </v>
   <v>       0.49987000       0.07798000       0.56246000 </v>
   <v>       0.24987000       0.92202000       0.56246000 </v>
   <v>       0.25013000       0.07798000       0.81246000 </v>
   <v>       0.00013000       0.92202000       0.81246000 </v>
   <v>       0.99987000       0.07798000       0.56246000 </v>
   <v>       0.74987000       0.92202000       0.56246000 </v>
   <v>       0.75013000       0.07798000       0.81246000 </v>
   <v>       0.50013000       0.92202000       0.81246000 </v>
  </varray>
 </structure>
 <calculation>
  <scstep>
   <time name="dav">   66.36   66.64</time>
   <time name="total">   66.45   66.74</time>
   <energy>
    <i name="alphaZ">   1079.87189334 </i>
    <i name="ewald"> -31116.87302882 </i>
    <i name="hartreedc"> -12708.40694483 </i>
    <i name="XCdc">   1468.91231332 </i>
    <i name="pawpsdc">  36917.91861236 </i>
    <i name="pawaedc"> -36503.41947684 </i>
    <i name="eentropy">      0.00000000 </i>
    <i name="bandstr">   1586.85918288 </i>
    <i name="atom">  45173.57650906 </i>
    <i name="e_fr_energy">   5898.43906047 </i>
    <i name="e_wo_entrp">   5898.43906047 </i>
    <i name="e_0_energy">   5898.43906047 </i>
   </energy>
  </scstep>
  <scstep>
   <time name="dav">   65.84   66.55</time>
   <time name="total">   65.85   66.56</time>
   <energy>
    <i name="e_fr_energy">    762.60087561 </i>
    <i name="e_wo_entrp">    762.60087561 </i>
    <i name="e_0_energy">    762.60087561 </i>
   </energy>
  </scstep>
  <scstep>
   <time name="dav">   73.19   73.64</time>
   <time name="total">   73.19   73.65</time>
   <energy>
    <i name="e_fr_energy">   -241.08094632 </i>
    <i name="e_wo_entrp">   -241.08094632 </i>
    <i name="e_0_energy">   -241.08094632 </i>
   </energy>
  </scstep>
  <scstep>
   <time name="dav">   81.27   81.74</time>
   <time name="total">   81.27   81.74</time>
   <energy>
    <i name="e_fr_energy">   -351.36033121 </i>
    <i name="e_wo_entrp">   -351.36033121 </i>
    <i name="e_0_energy">   -351.36033121 </i>
   </energy>
  </scstep>
  <scstep>
   <time name="dav">  106.32  107.61</time>
   <time name="total">  107.09  108.37</time>
   <energy>
    <i name="e_fr_energy">   -360.23135287 </i>
    <i name="e_wo_entrp">   -360.23135287 </i>
    <i name="e_0_energy">   -360.23135287 </i>
   </energy>
  </scstep>
  <scstep>
   <time name="dav">   94.69   95.29</time>
   <time name="total">   95.52   96.13</time>
   <energy>
    <i name="e_fr_energy">   -300.25740468 </i>
    <i name="e_wo_entrp">   -300.25740468 </i>
    <i name="e_0_energy">   -300.25740468 </i>
   </energy>
  </scstep>
  <scstep>
   <time name="dav">   72.03   72.41</time>
   <time name="total">   72.85   73.23</time>
   <energy>
    <i name="e_fr_energy">   -302.36833801 </i>
    <i name="e_wo_entrp">   -302.36833801 </i>
    <i name="e_0_energy">   -302.36833801 </i>
   </energy>
  </scstep>
  <scstep>
   <time name="dav">   86.40   87.26</time>
   <time name="total">   87.23   88.09</time>
   <energy>
    <i name="e_fr_energy">   -300.95597861 </i>
    <i name="e_wo_entrp">   -300.95597861 </i>
    <i name="e_0_energy">   -300.95597861 </i>
   </energy>
  </scstep>
  <scstep>
   <time name="dav">   74.09   74.87</time>
   <time name="total">   74.92   75.71</time>
   <energy>
    <i name="e_fr_energy">   -300.28917322 </i>
    <i name="e_wo_entrp">   -300.28917322 </i>
    <i name="e_0_energy">   -300.28917322 </i>
   </energy>
  </scstep>
  <scstep>
   <time name="dav">   79.38   80.01</time>
   <time name="total">   80.21   80.83</time>
   <energy>
    <i name="e_fr_energy">   -300.31658755 </i>
    <i name="e_wo_entrp">   -300.31658755 </i>
    <i name="e_0_energy">   -300.31658755 </i>
   </energy>
  </scstep>
  <scstep>
   <time name="dav">   95.93   97.05</time>
   <time name="total">   96.77   97.88</time>
   <energy>
    <i name="e_fr_energy">   -300.32174737 </i>
    <i name="e_wo_entrp">   -300.32174737 </i>
    <i name="e_0_energy">   -300.32174737 </i>
   </energy>
  </scstep>
  <scstep>
   <time name="dav">   78.81   79.54</time>
   <time name="total">   79.63   80.37</time>
   <energy>
    <i name="e_fr_energy">   -300.32658334 </i>
    <i name="e_wo_entrp">   -300.32658334 </i>
    <i name="e_0_energy">   -300.32658334 </i>
   </energy>
  </scstep>
  <scstep>
   <time name="dav">   78.26   78.58</time>
   <time name="total">   79.09   79.41</time>
   <energy>
    <i name="e_fr_energy">   -300.32704336 </i>
    <i name="e_wo_entrp">   -300.32704336 </i>
    <i name="e_0_energy">   -300.32704336 </i>
   </energy>
  </scstep>
  <scstep>
   <time name="dav">   76.22   77.07</time>
   <time name="total">   77.02   77.90</time>
   <energy>
    <i name="e_fr_energy">   -300.32723792 </i>
    <i name="e_wo_entrp">   -300.32723792 </i>
    <i name="e_0_energy">   -300.32723792 </i>
   </energy>
  </scstep>
  <scstep>
   <time name="dav">   91.25   92.08</time>
   <time name="total">   92.07   92.91</time>
   <energy>
    <i name="e_fr_energy">   -300.32741350 </i>
    <i name="e_wo_entrp">   -300.32741350 </i>
    <i name="e_0_energy">   -300.32741350 </i>
   </energy>
  </scstep>
  <scstep>
   <time name="dav">   86.71   87.27</time>
   <time name="total">   87.54   88.10</time>
   <energy>
    <i name="e_fr_energy">   -300.32738473 </i>
    <i name="e_wo_entrp">   -300.32738473 </i>
    <i name="e_0_energy">   -300.32738473 </i>
   </energy>
  </scstep>
  <scstep>
   <time name="dav">   71.87   71.98</time>
   <time name="total">   72.70   72.81</time>
   <energy>
    <i name="e_fr_energy">   -300.32739504 </i>
    <i name="e_wo_entrp">   -300.32739504 </i>
    <i name="e_0_energy">   -300.32739504 </i>
   </energy>
  </scstep>
  <scstep>
   <time name="dav">   75.61   75.94</time>
   <time name="total">   76.44   76.77</time>
   <energy>
    <i name="e_fr_energy">   -300.32739648 </i>
    <i name="e_wo_entrp">   -300.32739648 </i>
    <i name="e_0_energy">   -300.32739648 </i>
   </energy>
  </scstep>
  <scstep>
   <time name="dav">   56.51   56.65</time>
   <time name="total">   56.58   56.73</time>
   <energy>
    <i name="alphaZ">   1079.87189334 </i>
    <i name="ewald"> -31116.87302882 </i>
    <i name="hartreedc"> -12938.96116892 </i>
    <i name="XCdc">   1491.69092678 </i>
    <i name="pawpsdc">  43951.40395016 </i>
    <i name="pawaedc"> -43512.73666193 </i>
    <i name="eentropy">      0.00000000 </i>
    <i name="bandstr">  -4428.29981634 </i>
    <i name="atom">  45173.57650906 </i>
    <i name="e_fr_energy">   -300.32739665 </i>
    <i name="e_wo_entrp">   -300.32739665 </i>
    <i name="e_0_energy">   -300.32739665 </i>
   </energy>
  </scstep>
  <structure>
   <crystal>
    <varray name="basis" >
     <v>      11.17850000       0.00000000       0.00000000 </v>
     <v>       0.00000000       9.57460000       0.00000000 </v>
     <v>       0.00000000       0.00000000      11.18240000 </v>
    </varray>
    <i name="volume">   1196.84853820 </i>
    <varray name="rec_basis" >
     <v>       0.08945744       0.00000000       0.00000000 </v>
     <v>       0.00000000       0.10444301       0.00000000 </v>
     <v>       0.00000000       0.00000000       0.08942624 </v>
    </varray>
   </crystal>
   <varray name="positions" >
    <v>       0.37539000       0.00017000       0.43687000 </v>
    <v>       0.12461000       0.99984000       0.18687000 </v>
    <v>       0.62539000       0.99984000       0.43687000 </v>
    <v>       0.87539000       0.00017000       0.43687000 </v>
    <v>       0.62461000       0.99984000       0.18687000 </v>
    <v>       0.87461000       0.00017000       0.18687000 </v>
    <v>       0.37539000       0.00017000       0.93687000 </v>
    <v>       0.12461000       0.99984000       0.68687000 </v>
    <v>       0.37461000       0.00017000       0.68687000 </v>
    <v>       0.62539000       0.99984000       0.93687000 </v>
    <v>       0.87539000       0.00017000       0.93687000 </v>
    <v>       0.87461000       0.00017000       0.68687000 </v>
    <v>       0.12539000       0.99984000       0.93687000 </v>
    <v>       0.62461000       0.99984000       0.68687000 </v>
    <v>       0.00013000       0.29519000       0.06281000 </v>
    <v>       0.25013000       0.70481000       0.06281000 </v>
    <v>       0.24987000       0.29519000       0.31282000 </v>
    <v>       0.49987000       0.70481000       0.31282000 </v>
    <v>       0.50013000       0.29519000       0.06281000 </v>
    <v>       0.75013000       0.70481000       0.06281000 </v>
    <v>       0.74987000       0.29519000       0.31282000 </v>
    <v>       0.99987000       0.70481000       0.31282000 </v>
    <v>       0.00013000       0.29519000       0.56281000 </v>
    <v>       0.25013000       0.70481000       0.56281000 </v>
    <v>       0.24987000       0.29519000       0.81282000 </v>
    <v>       0.49987000       0.70481000       0.81282000 </v>
    <v>       0.50013000       0.29519000       0.56281000 </v>
    <v>       0.75013000       0.70481000       0.56281000 </v>
    <v>       0.74987000       0.29519000       0.81282000 </v>
    <v>       0.99987000       0.70481000       0.81282000 </v>
    <v>       0.25005000       0.32677000       0.06286000 </v>
    <v>       0.00005000       0.67323000       0.06286000 </v>
    <v>       0.49995000       0.32677000       0.31286000 </v>
    <v>       0.24995000       0.67323000       0.31286000 </v>
    <v>       0.75005000       0.32677000       0.06286000 </v>
    <v>       0.50005000       0.67323000       0.06286000 </v>
    <v>       0.99995000       0.32677000       0.31286000 </v>
    <v>       0.74995000       0.67323000       0.31286000 </v>
    <v>       0.25005000       0.32677000       0.56286000 </v>
    <v>       0.00005000       0.67323000       0.56286000 </v>
    <v>       0.49995000       0.32677000       0.81286000 </v>
    <v>       0.24995000       0.67323000       0.81286000 </v>
    <v>       0.75005000       0.32677000       0.56286000 </v>
    <v>       0.50005000       0.67323000       0.56286000 </v>
    <v>       0.99995000       0.32677000       0.81286000 </v>
    <v>       0.74995000       0.67323000       0.81286000 </v>
    <v>       0.49987000       0.07798000       0.06246000 </v>
    <v>       0.24987000       0.92202000       0.06246000 </v>
    <v>       0.25013000       0.07798000       0.31246000 </v>
    <v>       0.00013000       0.92202000       0.31246000 </v>
    <v>       0.99987000       0.07798000       0.06246000 </v>
    <v>       0.74987000       0.92202000       0.06246000 </v>
    <v>       0.75013000       0.07798000       0.31246000 </v>
    <v>       0.50013000       0.92202000       0.31246000 </v>
    <v>       0.49987000       0.07798000       0.56246000 </v>
    <v>       0.24987000       0.92202000       0.56246000 </v>
    <v>       0.25013000       0.07798000       0.81246000 </v>
    <v>       0.00013000       0.92202000       0.81246000 </v>
    <v>       0.99987000       0.07798000       0.56246000 </v>
    <v>       0.74987000       0.92202000       0.56246000 </v>
    <v>       0.75013000       0.07798000       0.81246000 </v>
    <v>       0.50013000       0.92202000       0.81246000 </v>
   </varray>
  </structure>
  <varray name="forces" >
   <v>      -0.60164059      -0.07991398      -0.63244040 </v>
   <v>       0.52144268      -0.01034046       1.03458666 </v>
   <v>      -0.19287316      -0.05440864      -0.72162454 </v>
   <v>       0.60081909       0.07311371      -0.15414705 </v>
   <v>      -0.51376735       0.00655022       0.07678313 </v>
   <v>       0.11273503      -0.12406513       0.32483432 </v>
   <v>       0.35932881       0.07165914       0.66262003 </v>
   <v>       0.03666400       0.00517844      -1.04258087 </v>
   <v>      -0.59714298      -0.12221268      -0.30543137 </v>
   <v>      -0.19735645       0.06331533       0.72642149 </v>
   <v>      -0.38405067      -0.06437779       0.15936699 </v>
   <v>       0.60545123       0.12891418      -0.30585645 </v>
   <v>       0.26678661      -0.09847474       0.38430194 </v>
   <v>      -0.03888531       0.00784054      -0.09585843 </v>
   <v>       0.04788900       1.04615106       0.48913415 </v>
   <v>       0.28354796      -0.04835876       0.63655148 </v>
   <v>       0.00117807      -1.97066312       0.04952557 </v>
   <v>      -0.32035251       0.99684551      -0.21376583 </v>
   <v>      -0.23524538      -0.98474805       0.48685538 </v>
   <v>      -0.10878679      -0.04330825       0.34694173 </v>
   <v>       0.00610853       0.03723115      -0.06936532 </v>
   <v>       0.34292653       1.00826569       0.20256592 </v>
   <v>       0.34835346      -0.95997108      -0.49857725 </v>
   <v>      -0.22253789       0.97301476      -0.54043890 </v>
   <v>       0.07715125       1.10298834      -0.15088423 </v>
   <v>      -0.20908354      -1.09294861       0.18615960 </v>
   <v>      -0.34268857       1.08385526      -0.49688544 </v>
   <v>       0.18228216      -1.07144937      -0.44683764 </v>
   <v>       0.07692743       1.08525087       0.14554345 </v>
   <v>       0.07425459      -1.08447809      -0.19194421 </v>
   <v>      -0.24788880       0.12148300      -0.49888888 </v>
   <v>      -0.02978706      -0.13926096      -0.37590500 </v>
   <v>       0.30291022       0.21336752       0.21613905 </v>
   <v>       0.00174534      -0.22937929      -0.10691532 </v>
   <v>       0.17866369       0.15325359      -0.24165106 </v>
   <v>       0.08923948      -0.15387988      -0.35269604 </v>
   <v>      -0.30178453       0.21493644      -0.20645403 </v>
   <v>      -0.00247335      -0.22817164       0.08701889 </v>
   <v>       0.20209363       0.17436866       0.46012582 </v>
   <v>      -0.27157377      -0.14528814       0.34962780 </v>
   <v>       0.13503394       0.05729125      -0.22082475 </v>
   <v>      -0.04904834      -0.10668771       0.13482048 </v>
   <v>      -0.22486023       0.08787038       0.28483724 </v>
   <v>       0.30249351      -0.12262529       0.37768679 </v>
   <v>      -0.03374553       0.05883027       0.21138385 </v>
   <v>      -0.05096484      -0.01181003      -0.12191555 </v>
   <v>       0.66403906       0.73978932      -0.88942303 </v>
   <v>      -1.17959121       0.12173485      -1.40036696 </v>
   <v>      -0.01509935       1.74042410      -0.05117464 </v>
   <v>      -0.77563341      -0.83311357      -0.72218389 </v>
   <v>       0.41029328      -0.82133048      -0.81692576 </v>
   <v>       0.15424184       0.08722427      -0.25728845 </v>
   <v>      -0.01006496       0.00175517       0.08013947 </v>
   <v>       0.77642646      -0.82773192       0.74033467 </v>
   <v>       0.72727206      -0.85722448       0.80221658 </v>
   <v>       0.71714200      -0.75658121       0.93568623 </v>
   <v>      -0.49328241      -0.88148087       0.52331123 </v>
   <v>       0.39040713       0.92455253       0.60877315 </v>
   <v>      -0.78431531       0.70879066       0.87932125 </v>
   <v>      -0.63388361       0.88540396       0.73847548 </v>
   <v>      -0.50715421      -0.99386064      -0.57464451 </v>
   <v>       0.57971407       0.93689464      -0.63819404 </v>
  </varray>
  <varray name="stress" >
   <v>      -6.14690816      -0.14157183      -0.83650108 </v>
   <v>      -0.14157144     -13.77992554      -0.11026375 </v>
   <v>      -0.83650123      -0.11026369      -7.64240896 </v>
  </varray>
  <energy>
   <i name="e_fr_energy">   -316.23655557 </i>
   <i name="e_wo_entrp">   -316.23655557 </i>
   <i name="e_0_energy">      0.00000000 </i>
  </energy>
  <time name="totalsc"> 1648.91 1660.74</time>
 </calculation>
 <calculation>
  <scstep>
   <time name="dav">   68.89   69.01</time>
   <time name="total">   69.69   69.81</time>
   <energy>
    <i name="alphaZ">   1097.36957682 </i>
    <i name="ewald"> -31286.07091326 </i>
    <i name="hartreedc"> -12999.26225305 </i>
    <i name="XCdc">   1501.20682069 </i>
    <i name="pawpsdc">  43951.10122513 </i>
    <i name="pawaedc"> -43512.43446022 </i>
    <i name="eentropy">      0.00000000 </i>
    <i name="bandstr">  -4224.97752875 </i>
    <i name="atom">  45173.57650906 </i>
    <i name="e_fr_energy">   -299.49102357 </i>
    <i name="e_wo_entrp">   -299.49102357 </i>
    <i name="e_0_energy">   -299.49102357 </i>
   </energy>
  </scstep>
  <scstep>
   <time name="dav">   76.84   77.67</time>
   <time name="total">   77.65   78.49</time>
   <energy>
    <i name="e_fr_energy">   -301.66821632 </i>
    <i name="e_wo_entrp">   -301.66821632 </i>
    <i name="e_0_energy">   -301.66821632 </i>
   </energy>
  </scstep>
  <scstep>
   <time name="dav">  101.61  102.10</time>
   <time name="total">  102.42  102.91</time>
   <energy>
    <i name="e_fr_energy">   -301.45621899 </i>
    <i name="e_wo_entrp">   -301.45621899 </i>
    <i name="e_0_energy">   -301.45621899 </i>
   </energy>
  </scstep>
  <scstep>
   <time name="dav">   90.94   91.11</time>
   <time name="total">   91.75   91.93</time>
   <energy>
    <i name="e_fr_energy">   -301.33444535 </i>
    <i name="e_wo_entrp">   -301.33444535 </i>
    <i name="e_0_energy">   -301.33444535 </i>
   </energy>
  </scstep>
  <scstep>
   <time name="dav">   85.18   85.30</time>
   <time name="total">   85.98   86.10</time>
   <energy>
    <i name="e_fr_energy">   -301.33656908 </i>
    <i name="e_wo_entrp">   -301.33656908 </i>
    <i name="e_0_energy">   -301.33656908 </i>
   </energy>
  </scstep>
  <scstep>
   <time name="dav">   91.28   91.94</time>
   <time name="total">   92.10   92.76</time>
   <energy>
    <i name="e_fr_energy">   -301.33512572 </i>
    <i name="e_wo_entrp">   -301.33512572 </i>
    <i name="e_0_energy">   -301.33512572 </i>
   </energy>
  </scstep>
  <scstep>
   <time name="dav">   86.62   86.72</time>
   <time name="total">   87.43   87.53</time>
   <energy>
    <i name="e_fr_energy">   -301.33426093 </i>
    <i name="e_wo_entrp">   -301.33426093 </i>
    <i name="e_0_energy">   -301.33426093 </i>
   </energy>
  </scstep>
  <scstep>
   <time name="dav">   92.24   92.50</time>
   <time name="total">   93.05   93.32</time>
   <energy>
    <i name="e_fr_energy">   -301.33428265 </i>
    <i name="e_wo_entrp">   -301.33428265 </i>
    <i name="e_0_energy">   -301.33428265 </i>
   </energy>
  </scstep>
  <scstep>
   <time name="dav">   81.76   82.37</time>
   <time name="total">   82.57   83.19</time>
   <energy>
    <i name="e_fr_energy">   -301.33432512 </i>
    <i name="e_wo_entrp">   -301.33432512 </i>
    <i name="e_0_energy">   -301.33432512 </i>
   </energy>
  </scstep>
  <scstep>
   <time name="dav">   97.86   98.23</time>
   <time name="total">   98.68   99.05</time>
   <energy>
    <i name="e_fr_energy">   -301.33432788 </i>
    <i name="e_wo_entrp">   -301.33432788 </i>
    <i name="e_0_energy">   -301.33432788 </i>
   </energy>
  </scstep>
  <scstep>
   <time name="dav">   73.05   73.11</time>
   <time name="total">   73.85   73.92</time>
   <energy>
    <i name="e_fr_energy">   -301.33432973 </i>
    <i name="e_wo_entrp">   -301.33432973 </i>
    <i name="e_0_energy">   -301.33432973 </i>
   </energy>
  </scstep>
  <scstep>
   <time name="dav">   74.90   74.98</time>
   <time name="total">   74.97   75.05</time>
   <energy>
    <i name="alphaZ">   1097.36957682 </i>
    <i name="ewald"> -31286.07091326 </i>
    <i name="hartreedc"> -12852.32955125 </i>
    <i name="XCdc">   1494.42210118 </i>
    <i name="pawpsdc">  44309.46460267 </i>
    <i name="pawaedc"> -43873.77242274 </i>
    <i name="eentropy">      0.00000000 </i>
    <i name="bandstr">  -4363.99423193 </i>
    <i name="atom">  45173.57650906 </i>
    <i name="e_fr_energy">   -301.33432944 </i>
    <i name="e_wo_entrp">   -301.33432944 </i>
    <i name="e_0_energy">   -301.33432944 </i>
   </energy>
  </scstep>
  <structure>
   <crystal>
    <varray name="basis" >
     <v>      11.13855997      -0.00091987      -0.00543523 </v>
     <v>      -0.00078789       9.49791055      -0.00061365 </v>
     <v>      -0.00543713      -0.00071670      11.13272551 </v>
    </varray>
    <i name="volume">   1177.76465130 </i>
    <varray name="rec_basis" >
     <v>       0.08977823       0.00000745       0.00004385 </v>
     <v>       0.00000870       0.10528632       0.00000678 </v>
     <v>       0.00004383       0.00000581       0.08982529 </v>
    </varray>
   </crystal>
   <varray name="positions" >
    <v>       0.37279352      -0.00023266       0.43414155 </v>
    <v>       0.12686037       0.99978790       0.19133337 </v>
    <v>       0.62455762       0.99956586       0.43375680 </v>
    <v>       0.87798293       0.00053839       0.43620499 </v>
    <v>       0.62239275       0.99987300       0.18720125 </v>
    <v>       0.87509653      -0.00045512       0.18827139 </v>
    <v>       0.37694074       0.00053106       0.93972865 </v>
    <v>       0.12476823       0.99986609       0.68237214 </v>
    <v>       0.37203293      -0.00044578       0.68555232 </v>
    <v>       0.62453828       0.00015902       0.94000390 </v>
    <v>       0.87373257      -0.00015437       0.93755753 </v>
    <v>       0.87722292       0.00081955       0.68555049 </v>
    <v>       0.12654136       0.99934382       0.93852794 </v>
    <v>       0.62444218       0.99987951       0.68645645 </v>
    <v>       0.00033667       0.30046114       0.06492020 </v>
    <v>       0.25135370       0.70456634       0.06555618 </v>
    <v>       0.24987508       0.28526060       0.31303366 </v>
    <v>       0.49848747       0.70983271       0.31189778 </v>
    <v>       0.49911476       0.29022824       0.06491037 </v>
    <v>       0.74966051       0.70459179       0.06430676 </v>
    <v>       0.74989636       0.29537759       0.31252075 </v>
    <v>       0.00134996       0.70989026       0.31369390 </v>
    <v>       0.00163338       0.29035308       0.56065906 </v>
    <v>       0.24916960       0.70971264       0.56047846 </v>
    <v>       0.25020296       0.30074753       0.81216906 </v>
    <v>       0.49896767       0.69930306       0.81362312 </v>
    <v>       0.49865107       0.30065112       0.56066636 </v>
    <v>       0.75091667       0.69941139       0.56088227 </v>
    <v>       0.75020199       0.30065815       0.81344790 </v>
    <v>       0.00019046       0.69934574       0.81199192 </v>
    <v>       0.24898020       0.32738211       0.06070771 </v>
    <v>      -0.00007855       0.67252832       0.06123829 </v>
    <v>       0.50125726       0.32784508       0.31379246 </v>
    <v>       0.24995753       0.67207425       0.31239875 </v>
    <v>       0.75082105       0.32754218       0.06181748 </v>
    <v>       0.50043513       0.67245466       0.06133841 </v>
    <v>       0.99864760       0.32785298       0.31196932 </v>
    <v>       0.74993933       0.67208033       0.31323541 </v>
    <v>       0.25092217       0.32764858       0.56484506 </v>
    <v>      -0.00112202       0.67249795       0.56436835 </v>
    <v>       0.50053276       0.32705867       0.81190733 </v>
    <v>       0.24973832       0.67269244       0.81344164 </v>
    <v>       0.74907958       0.32721274       0.56408883 </v>
    <v>       0.50135546       0.67261214       0.56448940 </v>
    <v>       0.99980437       0.32706642       0.81377194 </v>
    <v>       0.74973005       0.67317049       0.81233404 </v>
    <v>       0.50273577       0.08170751       0.05862289 </v>
    <v>       0.24477928       0.92263337       0.05641859 </v>
    <v>       0.25006484       0.08674931       0.31223922 </v>
    <v>      -0.00321737       0.91782227       0.30934438 </v>
    <v>       0.00164069       0.07384164       0.05893565 </v>
    <v>       0.75053566       0.92245949       0.06135002 </v>
    <v>       0.75008656       0.07798884       0.31280573 </v>
    <v>       0.50348080       0.91784938       0.31565392 </v>
    <v>       0.50300866       0.07366078       0.56592089 </v>
    <v>       0.25296494       0.91820788       0.56649670 </v>
    <v>       0.24800116       0.07353856       0.81471765 </v>
    <v>       0.00181487       0.92667846       0.81508634 </v>
    <v>       0.99648516       0.08155132       0.56625353 </v>
    <v>       0.74713437       0.92648120       0.56564590 </v>
    <v>       0.74794129       0.07297233       0.80998089 </v>
    <v>       0.50263185       0.92674064       0.80970673 </v>
   </varray>
  </structure>
  <varray name="forces" >
   <v>      -0.33438501      -0.04753195      -0.35807030 </v>
   <v>       0.33690667      -0.01106380       0.60087727 </v>
   <v>      -0.08962206      -0.01870914      -0.32128306 </v>
   <v>       0.30409801       0.04436124      -0.03208318 </v>
   <v>      -0.30939623       0.00480525       0.04983788 </v>
   <v>       0.10490507      -0.06249950       0.10612724 </v>
   <v>       0.21843340       0.03248884       0.32832192 </v>
   <v>       0.02050041       0.00433317      -0.53548265 </v>
   <v>      -0.30840570      -0.05298760      -0.07585529 </v>
   <v>      -0.08538221       0.03177791       0.31086378 </v>
   <v>      -0.22268965      -0.03683857       0.01742349 </v>
   <v>       0.31120026       0.06113330      -0.06985813 </v>
   <v>      -0.13116947       0.04348664      -0.09498661 </v>
   <v>       0.04160307      -0.00082503       0.06781569 </v>
   <v>       0.03018684      -0.00792773       0.13025898 </v>
   <v>       0.08396373      -0.14328971       0.21714455 </v>
   <v>      -0.00529313       2.74649839      -0.00044922 </v>
   <v>      -0.12535516      -1.06400489      -0.07584764 </v>
   <v>      -0.15980013       0.92735235       0.20859989 </v>
   <v>       0.02720574      -0.19465810       0.10508400 </v>
   <v>       0.00189183       0.31188259       0.00634532 </v>
   <v>       0.14394172      -1.07724377       0.07608298 </v>
   <v>       0.14280941       0.88023348      -0.20770186 </v>
   <v>      -0.08584746      -0.94691848      -0.19422615 </v>
   <v>       0.02169002      -0.04654482      -0.02461967 </v>
   <v>      -0.06515072       0.09999176      -0.01329849 </v>
   <v>      -0.06324140      -0.02276660      -0.14164228 </v>
   <v>      -0.01515655       0.06159974      -0.14631769 </v>
   <v>       0.02695575      -0.14546201       0.01268849 </v>
   <v>       0.03369250       0.10290036      -0.00425345 </v>
   <v>      -0.12545877       0.15194385      -0.24322679 </v>
   <v>       0.00566701      -0.24018219      -0.15865729 </v>
   <v>       0.15473504       0.13734780       0.10895074 </v>
   <v>       0.00067841      -0.07969663      -0.06291284 </v>
   <v>       0.06563251       0.16410623      -0.09890398 </v>
   <v>       0.04335865      -0.09123367      -0.15919930 </v>
   <v>      -0.15795991       0.13766612      -0.10472465 </v>
   <v>       0.00095477      -0.21541001       0.03390412 </v>
   <v>       0.09767488       0.11535444       0.21830860 </v>
   <v>      -0.12387324      -0.08713657       0.15578610 </v>
   <v>       0.07066218       0.19561923      -0.08544219 </v>
   <v>      -0.03068795      -0.22430333       0.06521323 </v>
   <v>      -0.09416106       0.21144154       0.12690983 </v>
   <v>       0.13078266      -0.23547298       0.16378377 </v>
   <v>      -0.00522708       0.19621849       0.07886890 </v>
   <v>      -0.03433618      -0.16453929      -0.05048811 </v>
   <v>       0.52206361      -1.08650812      -0.53933323 </v>
   <v>      -0.53719452      -0.03474647      -0.56606145 </v>
   <v>       0.00373331      -2.97243873      -0.01037051 </v>
   <v>      -0.54099581       1.20717201      -0.52120252 </v>
   <v>       0.20829283       0.31530473      -0.22183616 </v>
   <v>       0.00544826       0.18525604      -0.01369202 </v>
   <v>       0.00354019      -0.26932585      -0.00482159 </v>
   <v>       0.51742578       1.18489082       0.50801504 </v>
   <v>       0.16696156       0.36893921       0.17116738 </v>
   <v>       0.50704442       1.07793423       0.53039369 </v>
   <v>      -0.21087288       0.34941640       0.20871309 </v>
   <v>       0.22656743      -0.36687926       0.22788239 </v>
   <v>      -0.52105868      -1.03292509       0.51997073 </v>
   <v>      -0.17082937      -0.37352755       0.19303167 </v>
   <v>      -0.22761531       0.38650524      -0.21925801 </v>
   <v>       0.19995772      -0.38436396      -0.19226444 </v>
  </varray>
  <varray name="stress" >
   <v>       4.45903971      -0.21741729       0.34778494 </v>
   <v>      -0.21741748       9.12284924      -0.15584552 </v>
   <v>       0.34778469      -0.15584589       5.24087278 </v>
  </varray>
  <energy>
   <i name="e_fr_energy">   -317.44786076 </i>
   <i name="e_wo_entrp">   -317.44786076 </i>
   <i name="e_0_energy">      0.00000000 </i>
  </energy>
  <time name="totalsc"> 1144.45 1148.48</time>
 </calculation>
 <calculation>
  <scstep>
   <time name="dav">   70.83   70.97</time>
   <time name="total">   71.63   71.78</time>
   <energy>
    <i name="alphaZ">   1094.78176224 </i>
    <i name="ewald"> -31263.93044029 </i>
    <i name="hartreedc"> -12841.23631681 </i>
    <i name="XCdc">   1492.98665928 </i>
    <i name="pawpsdc">  44309.45769501 </i>
    <i name="pawaedc"> -43873.76794949 </i>
    <i name="eentropy">      0.00000000 </i>
    <i name="bandstr">  -4393.23369515 </i>
    <i name="atom">  45173.57650906 </i>
    <i name="e_fr_energy">   -301.36577614 </i>
    <i name="e_wo_entrp">   -301.36577614 </i>
    <i name="e_0_energy">   -301.36577614 </i>
   </energy>
  </scstep>
  <scstep>
   <time name="dav">   72.53   73.08</time>
   <time name="total">   73.33   73.88</time>
   <energy>
    <i name="e_fr_energy">   -301.41250488 </i>
    <i name="e_wo_entrp">   -301.41250488 </i>
    <i name="e_0_energy">   -301.41250488 </i>
   </energy>
  </scstep>
  <scstep>
   <time name="dav">   99.45   99.55</time>
   <time name="total">  100.25  100.36</time>
   <energy>
    <i name="e_fr_energy">   -301.40854814 </i>
    <i name="e_wo_entrp">   -301.40854814 </i>
    <i name="e_0_energy">   -301.40854814 </i>
   </energy>
  </scstep>
  <scstep>
   <time name="dav">   88.66   88.71</time>
   <time name="total">   89.47   89.52</time>
   <energy>
    <i name="e_fr_energy">   -301.40655999 </i>
    <i name="e_wo_entrp">   -301.40655999 </i>
    <i name="e_0_energy">   -301.40655999 </i>
   </energy>
  </scstep>
  <scstep>
   <time name="dav">   88.17   88.20</time>
   <time name="total">   88.98   89.00</time>
   <energy>
    <i name="e_fr_energy">   -301.40650134 </i>
    <i name="e_wo_entrp">   -301.40650134 </i>
    <i name="e_0_energy">   -301.40650134 </i>
   </energy>
  </scstep>
  <scstep>
   <time name="dav">   81.33   81.62</time>
   <time name="total">   82.14   82.43</time>
   <energy>
    <i name="e_fr_energy">   -301.40645662 </i>
    <i name="e_wo_entrp">   -301.40645662 </i>
    <i name="e_0_energy">   -301.40645662 </i>
   </energy>
  </scstep>
  <scstep>
   <time name="dav">   90.09   90.16</time>
   <time name="total">   90.90   90.97</time>
   <energy>
    <i name="e_fr_energy">   -301.40642320 </i>
    <i name="e_wo_entrp">   -301.40642320 </i>
    <i name="e_0_energy">   -301.40642320 </i>
   </energy>
  </scstep>
  <scstep>
   <time name="dav">   94.83   94.85</time>
   <time name="total">   95.63   95.66</time>
   <energy>
    <i name="e_fr_energy">   -301.40641937 </i>
    <i name="e_wo_entrp">   -301.40641937 </i>
    <i name="e_0_energy">   -301.40641937 </i>
   </energy>
  </scstep>
  <scstep>
   <time name="dav">   72.65   72.93</time>
   <time name="total">   73.38   73.74</time>
   <energy>
    <i name="e_fr_energy">   -301.40642083 </i>
    <i name="e_wo_entrp">   -301.40642083 </i>
    <i name="e_0_energy">   -301.40642083 </i>
   </energy>
  </scstep>
  <scstep>
   <time name="dav">   47.79   48.30</time>
   <time name="total">   47.87   48.38</time>
   <energy>
    <i name="alphaZ">   1094.78176224 </i>
    <i name="ewald"> -31263.93044029 </i>
    <i name="hartreedc"> -12862.90734928 </i>
    <i name="XCdc">   1493.99127049 </i>
    <i name="pawpsdc">  44245.86800192 </i>
    <i name="pawaedc"> -43809.56541241 </i>
    <i name="eentropy">      0.00000000 </i>
    <i name="bandstr">  -4373.22076289 </i>
    <i name="atom">  45173.57650906 </i>
    <i name="e_fr_energy">   -301.40642116 </i>
    <i name="e_wo_entrp">   -301.40642116 </i>
    <i name="e_0_energy">   -301.40642116 </i>
   </energy>
  </scstep>
  <structure>
   <crystal>
    <varray name="basis" >
     <v>      11.14441137      -0.00078511      -0.00463895 </v>
     <v>      -0.00067246       9.50914591      -0.00052375 </v>
     <v>      -0.00464057      -0.00061170      11.14000305 </v>
    </varray>
    <i name="volume">   1180.54861851 </i>
    <varray name="rec_basis" >
     <v>       0.08973109       0.00000635       0.00003738 </v>
     <v>       0.00000741       0.10516192       0.00000578 </v>
     <v>       0.00003737       0.00000495       0.08976660 </v>
    </varray>
   </crystal>
   <varray name="positions" >
    <v>       0.37317548      -0.00017312       0.43454326 </v>
    <v>       0.12652918       0.99979551       0.19067639 </v>
    <v>       0.62468023       0.99960639       0.43421499 </v>
    <v>       0.87760174       0.00048395       0.43630266 </v>
    <v>       0.62271873       0.99986816       0.18715267 </v>
    <v>       0.87502490      -0.00036282       0.18806513 </v>
    <v>       0.37671253       0.00047768       0.93930786 </v>
    <v>       0.12474529       0.99986229       0.68303403 </v>
    <v>       0.37241194      -0.00035479       0.68574642 </v>
    <v>       0.62466328       0.00011188       0.93954278 </v>
    <v>       0.87397621      -0.00010645       0.93745648 </v>
    <v>       0.87683883       0.00072360       0.68574447 </v>
    <v>       0.12637196       0.99941707       0.93828388 </v>
    <v>       0.62446689       0.99987368       0.68651732 </v>
    <v>       0.00030608       0.29968264       0.06460961 </v>
    <v>       0.25117358       0.70460228       0.06515197 </v>
    <v>       0.24987443       0.28672705       0.31300230 </v>
    <v>       0.49869075       0.70909095       0.31203355 </v>
    <v>       0.49926393       0.29096102       0.06460140 </v>
    <v>       0.74972944       0.70462400       0.06408654 </v>
    <v>       0.74989251       0.29534989       0.31256478 </v>
    <v>       0.00113224       0.70913993       0.31356515 </v>
    <v>       0.00141254       0.29106744       0.56097552 </v>
    <v>       0.24931092       0.70898862       0.56082160 </v>
    <v>       0.25015399       0.29992675       0.81226478 </v>
    <v>       0.49910034       0.70011637       0.81350505 </v>
    <v>       0.49886862       0.29984463       0.56098187 </v>
    <v>       0.75080120       0.70020871       0.56116594 </v>
    <v>       0.75015308       0.29985056       0.81335543 </v>
    <v>       0.00014346       0.70015275       0.81211380 </v>
    <v>       0.24913764       0.32729174       0.06102451 </v>
    <v>      -0.00005953       0.67263197       0.06147695 </v>
    <v>       0.50106497       0.32768627       0.31365514 </v>
    <v>       0.24995647       0.67224494       0.31246664 </v>
    <v>       0.75070775       0.32742814       0.06197083 </v>
    <v>       0.50037862       0.67256918       0.06156231 </v>
    <v>       0.99883914       0.32769307       0.31210048 </v>
    <v>       0.74994088       0.67225012       0.31318018 </v>
    <v>       0.25079378       0.32751879       0.56455287 </v>
    <v>      -0.00094980       0.67260606       0.56414647 </v>
    <v>       0.50044714       0.32701604       0.81204748 </v>
    <v>       0.24976941       0.67277183       0.81335606 </v>
    <v>       0.74922217       0.32714736       0.56390807 </v>
    <v>       0.50116341       0.67270335       0.56424953 </v>
    <v>       0.99982571       0.32702264       0.81363775 </v>
    <v>       0.74976243       0.67317929       0.81241145 </v>
    <v>       0.50231465       0.08115700       0.05918731 </v>
    <v>       0.24552820       0.92254293       0.05730800 </v>
    <v>       0.25007434       0.08545420       0.31227165 </v>
    <v>      -0.00272494       0.91844230       0.30980315 </v>
    <v>       0.00138064       0.07445284       0.05945420 </v>
    <v>       0.75043786       0.92239458       0.06151331 </v>
    <v>       0.75009292       0.07798753       0.31275486 </v>
    <v>       0.50298794       0.91846525       0.31518370 </v>
    <v>       0.50254698       0.07429859       0.56541140 </v>
    <v>       0.25250964       0.91877080       0.56590247 </v>
    <v>       0.24831405       0.07419451       0.81438561 </v>
    <v>       0.00156690       0.92599041       0.81469970 </v>
    <v>       0.99698252       0.08102388       0.56569550 </v>
    <v>       0.74753632       0.92582234       0.56517723 </v>
    <v>       0.74826333       0.07371196       0.81034591 </v>
    <v>       0.50226415       0.92604346       0.81011168 </v>
   </varray>
  </structure>
  <varray name="forces" >
   <v>      -0.37402259      -0.04984457      -0.39859848 </v>
   <v>       0.36553983      -0.00818109       0.66599106 </v>
   <v>      -0.10741500      -0.02593471      -0.38225841 </v>
   <v>       0.34820468       0.04788279      -0.04953346 </v>
   <v>      -0.34032744       0.00486974       0.05396083 </v>
   <v>       0.10807134      -0.07276324       0.13950451 </v>
   <v>       0.23960092       0.03913994       0.37880694 </v>
   <v>       0.02309949       0.00432499      -0.61070457 </v>
   <v>      -0.35304510      -0.06553147      -0.11313182 </v>
   <v>      -0.10397105       0.03802000       0.37393419 </v>
   <v>      -0.24627716      -0.04112989       0.03914310 </v>
   <v>       0.35653398       0.07302669      -0.10760416 </v>
   <v>      -0.05981629       0.01508721      -0.00892831 </v>
   <v>       0.02739944       0.00095482       0.03909393 </v>
   <v>       0.03226832       0.12330333       0.18631235 </v>
   <v>       0.11358910      -0.13170845       0.28168961 </v>
   <v>      -0.00414221       1.73931724       0.00436418 </v>
   <v>      -0.14869945      -0.69443150      -0.09023011 </v>
   <v>      -0.16591845       0.58850711       0.24282519 </v>
   <v>       0.00710326      -0.17133321       0.14083949 </v>
   <v>       0.00253159       0.26909416      -0.00459459 </v>
   <v>       0.16792605      -0.70279496       0.08868359 </v>
   <v>       0.16731166       0.55607050      -0.24482800 </v>
   <v>      -0.10060665      -0.60615031      -0.23932392 </v>
   <v>       0.03037707       0.09566368      -0.04512929 </v>
   <v>      -0.08702753      -0.04741180       0.01806622 </v>
   <v>      -0.10648334       0.11355664      -0.19753895 </v>
   <v>       0.01507975      -0.07884602      -0.19296490 </v>
   <v>       0.03496262       0.00569587       0.03355560 </v>
   <v>       0.03947115      -0.04440660      -0.03348176 </v>
   <v>      -0.14416269       0.14951754      -0.28323805 </v>
   <v>       0.00032578      -0.22600542      -0.19180343 </v>
   <v>       0.17791843       0.15064688       0.12631233 </v>
   <v>       0.00069604      -0.10402074      -0.07070252 </v>
   <v>       0.08281543       0.16298573      -0.12079757 </v>
   <v>       0.04999511      -0.10118743      -0.18933680 </v>
   <v>      -0.18044329       0.15109302      -0.12141163 </v>
   <v>       0.00042812      -0.21770932       0.04278067 </v>
   <v>       0.11413752       0.12618196       0.25705671 </v>
   <v>      -0.14663565      -0.09685022       0.18582470 </v>
   <v>       0.08020636       0.17648967      -0.10532074 </v>
   <v>      -0.03359095      -0.20760894       0.07548674 </v>
   <v>      -0.11353069       0.19424882       0.15073672 </v>
   <v>       0.15671964      -0.21991585       0.19621738 </v>
   <v>      -0.00910417       0.17732549       0.09844970 </v>
   <v>      -0.03696002      -0.14379300      -0.06114538 </v>
   <v>       0.53978698      -0.76391776      -0.58537705 </v>
   <v>      -0.65039675       0.00264610      -0.70874446 </v>
   <v>       0.00079013      -1.97377752      -0.01441448 </v>
   <v>      -0.57105122       0.84194496      -0.54634213 </v>
   <v>       0.24367418       0.16713555      -0.31712716 </v>
   <v>       0.02753962       0.17048468      -0.04995007 </v>
   <v>       0.00140412      -0.22689003       0.00772809 </v>
   <v>       0.55205799       0.82537909       0.53875880 </v>
   <v>       0.25977158       0.20786292       0.27473717 </v>
   <v>       0.53547887       0.75340538       0.58562759 </v>
   <v>      -0.25754238       0.19222604       0.26087352 </v>
   <v>       0.25413042      -0.20188874       0.28870248 </v>
   <v>      -0.55653104      -0.72700059       0.56856755 </v>
   <v>      -0.24700244      -0.20899104       0.28183170 </v>
   <v>      -0.27439368       0.21009175      -0.27737341 </v>
   <v>       0.26215066      -0.21415588      -0.26452708 </v>
  </varray>
  <varray name="stress" >
   <v>       2.71380015      -0.21070158       0.16275138 </v>
   <v>      -0.21070150       3.92974398      -0.16267136 </v>
   <v>       0.16275123      -0.16267085       3.12600554 </v>
  </varray>
  <energy>
   <i name="e_fr_energy">   -317.48906965 </i>
   <i name="e_wo_entrp">   -317.48906965 </i>
   <i name="e_0_energy">      0.00000000 </i>
  </energy>
  <time name="totalsc">  926.58  930.31</time>
 </calculation>
 <calculation>
  <scstep>
   <time name="dav">   68.27   68.98</time>
   <time name="total">   69.07   69.78</time>
   <energy>
    <i name="alphaZ">   1095.00350965 </i>
    <i name="ewald"> -31381.57997342 </i>
    <i name="hartreedc"> -12756.97878602 </i>
    <i name="XCdc">   1493.44577990 </i>
    <i name="pawpsdc">  44245.77782061 </i>
    <i name="pawaedc"> -43809.47402878 </i>
    <i name="eentropy">      0.00000000 </i>
    <i name="bandstr">  -4360.76782555 </i>
    <i name="atom">  45173.57650906 </i>
    <i name="e_fr_energy">   -300.99699455 </i>
    <i name="e_wo_entrp">   -300.99699455 </i>
    <i name="e_0_energy">   -300.99699455 </i>
   </energy>
  </scstep>
  <scstep>
   <time name="dav">   78.94   79.19</time>
   <time name="total">   79.75   80.00</time>
   <energy>
    <i name="e_fr_energy">   -301.93642635 </i>
    <i name="e_wo_entrp">   -301.93642635 </i>
    <i name="e_0_energy">   -301.93642635 </i>
   </energy>
  </scstep>
  <scstep>
   <time name="dav">  101.61  101.79</time>
   <time name="total">  102.42  102.60</time>
   <energy>
    <i name="e_fr_energy">   -301.93027253 </i>
    <i name="e_wo_entrp">   -301.93027253 </i>
    <i name="e_0_energy">   -301.93027253 </i>
   </energy>
  </scstep>
  <scstep>
   <time name="dav">   74.82   75.06</time>
   <time name="total">   75.73   75.97</time>
   <energy>
    <i name="e_fr_energy">   -301.91198702 </i>
    <i name="e_wo_entrp">   -301.91198702 </i>
    <i name="e_0_energy">   -301.91198702 </i>
   </energy>
  </scstep>
  <scstep>
   <time name="dav">   83.31   83.60</time>
   <time name="total">   84.12   84.40</time>
   <energy>
    <i name="e_fr_energy">   -301.90320375 </i>
    <i name="e_wo_entrp">   -301.90320375 </i>
    <i name="e_0_energy">   -301.90320375 </i>
   </energy>
  </scstep>
  <scstep>
   <time name="dav">   78.90   79.09</time>
   <time name="total">   79.72   79.91</time>
   <energy>
    <i name="e_fr_energy">   -301.90377520 </i>
    <i name="e_wo_entrp">   -301.90377520 </i>
    <i name="e_0_energy">   -301.90377520 </i>
   </energy>
  </scstep>
  <scstep>
   <time name="dav">   95.84   96.41</time>
   <time name="total">   96.64   97.21</time>
   <energy>
    <i name="e_fr_energy">   -301.90374381 </i>
    <i name="e_wo_entrp">   -301.90374381 </i>
    <i name="e_0_energy">   -301.90374381 </i>
   </energy>
  </scstep>
  <scstep>
   <time name="dav">   83.39   84.34</time>
   <time name="total">   84.21   85.17</time>
   <energy>
    <i name="e_fr_energy">   -301.90367270 </i>
    <i name="e_wo_entrp">   -301.90367270 </i>
    <i name="e_0_energy">   -301.90367270 </i>
   </energy>
  </scstep>
  <scstep>
   <time name="dav">   77.72   78.53</time>
   <time name="total">   78.53   79.34</time>
   <energy>
    <i name="e_fr_energy">   -301.90366128 </i>
    <i name="e_wo_entrp">   -301.90366128 </i>
    <i name="e_0_energy">   -301.90366128 </i>
   </energy>
  </scstep>
  <scstep>
   <time name="dav">   76.01   76.34</time>
   <time name="total">   76.82   77.15</time>
   <energy>
    <i name="e_fr_energy">   -301.90366754 </i>
    <i name="e_wo_entrp">   -301.90366754 </i>
    <i name="e_0_energy">   -301.90366754 </i>
   </energy>
  </scstep>
  <scstep>
   <time name="dav">   82.92   83.10</time>
   <time name="total">   82.99   83.18</time>
   <energy>
    <i name="alphaZ">   1095.00350965 </i>
    <i name="ewald"> -31381.57997342 </i>
    <i name="hartreedc"> -12749.82286818 </i>
    <i name="XCdc">   1493.09718780 </i>
    <i name="pawpsdc">  44077.94155891 </i>
    <i name="pawaedc"> -43638.79546316 </i>
    <i name="eentropy">      0.00000000 </i>
    <i name="bandstr">  -4371.32412883 </i>
    <i name="atom">  45173.57650906 </i>
    <i name="e_fr_energy">   -301.90366816 </i>
    <i name="e_wo_entrp">   -301.90366816 </i>
    <i name="e_0_energy">   -301.90366816 </i>
   </energy>
  </scstep>
  <structure>
   <crystal>
    <varray name="basis" >
     <v>      11.14723103      -0.00241366      -0.00553716 </v>
     <v>      -0.00206304       9.50313939      -0.00159916 </v>
     <v>      -0.00553878      -0.00187043      11.14196933 </v>
    </varray>
    <i name="volume">   1180.30954750 </i>
    <varray name="rec_basis" >
     <v>       0.08970840       0.00001948       0.00004460 </v>
     <v>       0.00002279       0.10522839       0.00001768 </v>
     <v>       0.00004459       0.00001511       0.08975077 </v>
    </varray>
   </crystal>
   <varray name="positions" >
    <v>       0.37068617      -0.00056164       0.43190278 </v>
    <v>       0.12886137       0.99973724       0.19505369 </v>
    <v>       0.62393391       0.99938130       0.43150802 </v>
    <v>       0.87998003       0.00085046       0.43586052 </v>
    <v>       0.62050614       0.99990367       0.18749560 </v>
    <v>       0.87565117      -0.00094253       0.18914685 </v>
    <v>       0.37826784       0.00079867       0.94191074 </v>
    <v>       0.12489648       0.99989258       0.67887798 </v>
    <v>       0.37001832      -0.00089596       0.68480435 </v>
    <v>       0.62392687       0.00041227       0.94222146 </v>
    <v>       0.87235644      -0.00042405       0.93786321 </v>
    <v>       0.87925900       0.00131353       0.68482705 </v>
    <v>       0.12652726       0.99931560       0.93883209 </v>
    <v>       0.62452279       0.99989238       0.68653559 </v>
    <v>       0.00051541       0.30215775       0.06613846 </v>
    <v>       0.25208370       0.70386754       0.06730656 </v>
    <v>       0.24985916       0.29177419       0.31309635 </v>
    <v>       0.49757750       0.70745073       0.31132793 </v>
    <v>       0.49820917       0.29210109       0.06636374 </v>
    <v>       0.74959397       0.70370299       0.06520722 </v>
    <v>       0.74991248       0.29674155       0.31243983 </v>
    <v>       0.00236047       0.70747920       0.31424709 </v>
    <v>       0.00264559       0.29209196       0.55918707 </v>
    <v>       0.24854832       0.70774057       0.55899155 </v>
    <v>       0.25039914       0.30236710       0.81184534 </v>
    <v>       0.49841614       0.69793153       0.81386431 </v>
    <v>       0.49789861       0.30233876       0.55939394 </v>
    <v>       0.75114149       0.69790741       0.55967383 </v>
    <v>       0.75041745       0.30181624       0.81371850 </v>
    <v>       0.00042213       0.69799786       0.81168055 </v>
    <v>       0.24815347       0.32824475       0.05907320 </v>
    <v>      -0.00010419       0.67127025       0.06009771 </v>
    <v>       0.50227447       0.32880925       0.31451607 </v>
    <v>       0.24996181       0.67132312       0.31200644 </v>
    <v>       0.75132762       0.32850440       0.06109507 </v>
    <v>       0.50072405       0.67179608       0.06022899 </v>
    <v>       0.99762090       0.32882073       0.31127501 </v>
[...]
       <r>   11.5504    0.0000 </r>
       <r>   11.5836    0.0000 </r>
       <r>   11.6410    0.0000 </r>
       <r>   11.6871    0.0000 </r>
      </set>
     </set>
    </set>
   </array>
  </eigenvalues>
  <separator name="orbital magnetization" >
   <v name="MAGDIPOLOUT">      0.00000000      0.00000000      0.00000000</v>
  </separator>
  <dos>
   <i name="efermi">      4.44505676 </i>
   <total>
    <array>
     <dimension dim="1">gridpoints</dimension>
     <dimension dim="2">spin</dimension>
     <field>energy</field>
     <field>total</field>
     <field>integrated</field>
     <set>
      <set comment="spin 1">
       <r>   -42.4472     0.0000     0.0000 </r>
       <r>   -42.2560     0.0000     0.0000 </r>
       <r>   -42.0648     0.0000     0.0000 </r>
       <r>   -41.8736     0.0000     0.0000 </r>
       <r>   -41.6824     0.0000     0.0000 </r>
       <r>   -41.4912     0.0000     0.0000 </r>
       <r>   -41.3000     0.0000     0.0000 </r>
       <r>   -41.1088     0.0000     0.0000 </r>
       <r>   -40.9176     0.0000     0.0000 </r>
       <r>   -40.7264     0.0000     0.0000 </r>
       <r>   -40.5352     0.0000     0.0000 </r>
       <r>   -40.3440     0.0000     0.0000 </r>
       <r>   -40.1528     0.0000     0.0000 </r>
       <r>   -39.9616     0.0000     0.0000 </r>
       <r>   -39.7704     0.0000     2.0000 </r>
       <r>   -39.5792     0.0000     6.0000 </r>
       <r>   -39.3880     0.0000    16.0000 </r>
       <r>   -39.1967     0.0000    24.0000 </r>
       <r>   -39.0055     0.0000    24.0000 </r>
       <r>   -38.8143     0.0000    24.0000 </r>
       <r>   -38.6231     0.0000    24.0000 </r>
       <r>   -38.4319     0.0000    24.0000 </r>
       <r>   -38.2407     0.0000    24.0000 </r>
       <r>   -38.0495     0.0000    24.0000 </r>
       <r>   -37.8583     0.0000    24.0000 </r>
       <r>   -37.6671     0.0000    24.0000 </r>
       <r>   -37.4759     0.0000    24.0000 </r>
       <r>   -37.2847     0.0000    24.0000 </r>
       <r>   -37.0935     0.0000    24.0000 </r>
       <r>   -36.9023     0.0000    24.0000 </r>
       <r>   -36.7111     0.0000    24.0000 </r>
       <r>   -36.5199     0.0000    24.0000 </r>
       <r>   -36.3287     0.0000    24.0000 </r>
       <r>   -36.1375     0.0000    24.0000 </r>
       <r>   -35.9463     0.0000    24.0000 </r>
       <r>   -35.7551     0.0000    24.0000 </r>
       <r>   -35.5639     0.0000    24.0000 </r>
       <r>   -35.3727     0.0000    24.0000 </r>
       <r>   -35.1815     0.0000    24.0000 </r>
       <r>   -34.9903     0.0000    24.0000 </r>
       <r>   -34.7991     0.0000    24.0000 </r>
       <r>   -34.6079     0.0000    24.0000 </r>
       <r>   -34.4167     0.0000    24.0000 </r>
       <r>   -34.2255     0.0000    24.0000 </r>
       <r>   -34.0343     0.0000    24.0000 </r>
       <r>   -33.8431     0.0000    24.0000 </r>
       <r>   -33.6519     0.0000    24.0000 </r>
       <r>   -33.4607     0.0000    24.0000 </r>
       <r>   -33.2695     0.0000    24.0000 </r>
       <r>   -33.0783     0.0000    24.0000 </r>
       <r>   -32.8871     0.0000    24.0000 </r>
       <r>   -32.6959     0.0000    24.0000 </r>
       <r>   -32.5047     0.0000    24.0000 </r>
       <r>   -32.3135     0.0000    24.0000 </r>
       <r>   -32.1223     0.0000    24.0000 </r>
       <r>   -31.9311     0.0000    24.0000 </r>
       <r>   -31.7399     0.0000    24.0000 </r>
       <r>   -31.5487     0.0000    24.0000 </r>
       <r>   -31.3575     0.0000    24.0000 </r>
       <r>   -31.1663     0.0000    24.0000 </r>
       <r>   -30.9751     0.0000    24.0000 </r>
       <r>   -30.7839     0.0000    24.0000 </r>
       <r>   -30.5927     0.0000    24.0000 </r>
       <r>   -30.4015     0.0000    24.0000 </r>
       <r>   -30.2103     0.0000    24.0000 </r>
       <r>   -30.0191     0.0000    24.0000 </r>
       <r>   -29.8279     0.0000    24.0000 </r>
       <r>   -29.6367     0.0000    24.0000 </r>
       <r>   -29.4455     0.0000    24.0000 </r>
       <r>   -29.2543     0.0000    24.0000 </r>
       <r>   -29.0631     0.0000    24.0000 </r>
       <r>   -28.8719     0.0000    24.0000 </r>
       <r>   -28.6807     0.0000    24.0000 </r>
       <r>   -28.4894     0.0000    24.0000 </r>
       <r>   -28.2982     0.0000    24.0000 </r>
       <r>   -28.1070     0.0000    24.0000 </r>
       <r>   -27.9158     0.0000    24.0000 </r>
       <r>   -27.7246     0.0000    24.0000 </r>
       <r>   -27.5334     0.0000    24.0000 </r>
       <r>   -27.3422     0.0000    24.0000 </r>
       <r>   -27.1510     0.0000    24.0000 </r>
       <r>   -26.9598     0.0000    24.0000 </r>
       <r>   -26.7686     0.0000    24.0000 </r>
       <r>   -26.5774     0.0000    24.0000 </r>
       <r>   -26.3862     0.0000    24.0000 </r>
       <r>   -26.1950     0.0000    24.0000 </r>
       <r>   -26.0038     0.0000    24.0000 </r>
       <r>   -25.8126     0.0000    24.0000 </r>
       <r>   -25.6214     0.0000    24.0000 </r>
       <r>   -25.4302     0.0000    24.0000 </r>
       <r>   -25.2390     0.0000    24.0000 </r>
       <r>   -25.0478     0.0000    24.0000 </r>
       <r>   -24.8566     0.0000    24.0000 </r>
       <r>   -24.6654     0.0000    24.0000 </r>
       <r>   -24.4742     0.0000    24.0000 </r>
       <r>   -24.2830     0.0000    24.0000 </r>
       <r>   -24.0918     0.0000    24.0000 </r>
       <r>   -23.9006     0.0000    24.0000 </r>
       <r>   -23.7094     0.0000    24.0000 </r>
       <r>   -23.5182     0.0000    24.0000 </r>
       <r>   -23.3270     0.0000    24.0000 </r>
       <r>   -23.1358     0.0000    24.0000 </r>
       <r>   -22.9446     0.0000    24.0000 </r>
       <r>   -22.7534     0.0000    24.0000 </r>
       <r>   -22.5622     0.0000    24.0000 </r>
       <r>   -22.3710     0.0000    24.0000 </r>
       <r>   -22.1798     0.0000    24.0000 </r>
       <r>   -21.9886     0.0000    24.0000 </r>
       <r>   -21.7974     0.0000    24.0000 </r>
       <r>   -21.6062     0.0000    24.0000 </r>
       <r>   -21.4150     0.0000    24.0000 </r>
       <r>   -21.2238     0.0000    24.0000 </r>
       <r>   -21.0326     0.0000    24.0000 </r>
       <r>   -20.8414     0.0000    24.0000 </r>
       <r>   -20.6502     0.0000    24.0000 </r>
       <r>   -20.4590     0.0000    24.0000 </r>
       <r>   -20.2678     0.0000    24.0000 </r>
       <r>   -20.0766     0.0000    24.0000 </r>
       <r>   -19.8854     0.0000    24.0000 </r>
       <r>   -19.6942     0.0000    24.0000 </r>
       <r>   -19.5030     0.0000    24.0000 </r>
       <r>   -19.3118     0.0000    24.0000 </r>
       <r>   -19.1206     0.0000    24.0000 </r>
       <r>   -18.9294     0.0000    24.0000 </r>
       <r>   -18.7382     0.0000    24.0000 </r>
       <r>   -18.5470     0.0000    46.0000 </r>
       <r>   -18.3558     0.0000   150.0000 </r>
       <r>   -18.1646     0.0000   180.0000 </r>
       <r>   -17.9734     0.0000   184.0000 </r>
       <r>   -17.7821     0.0000   184.0000 </r>
       <r>   -17.5909     0.0000   184.0000 </r>
       <r>   -17.3997     0.0000   184.0000 </r>
       <r>   -17.2085     0.0000   184.0000 </r>
       <r>   -17.0173     0.0000   184.0000 </r>
       <r>   -16.8261     0.0000   184.0000 </r>
       <r>   -16.6349     0.0000   184.0000 </r>
       <r>   -16.4437     0.0000   184.0000 </r>
       <r>   -16.2525     0.0000   184.0000 </r>
       <r>   -16.0613     0.0000   184.0000 </r>
       <r>   -15.8701     0.0000   184.0000 </r>
       <r>   -15.6789     0.0000   184.0000 </r>
       <r>   -15.4877     0.0000   184.0000 </r>
       <r>   -15.2965     0.0000   184.0000 </r>
       <r>   -15.1053     0.0000   184.0000 </r>
       <r>   -14.9141     0.0000   184.0000 </r>
       <r>   -14.7229     0.0000   184.0000 </r>
       <r>   -14.5317     0.0000   184.0000 </r>
       <r>   -14.3405     0.0000   184.0000 </r>
       <r>   -14.1493     0.0000   184.0000 </r>
       <r>   -13.9581     0.0000   184.0000 </r>
       <r>   -13.7669     0.0000   184.0000 </r>
       <r>   -13.5757     0.0000   184.0000 </r>
       <r>   -13.3845     0.0000   184.0000 </r>
       <r>   -13.1933     0.0000   184.0000 </r>
       <r>   -13.0021     0.0000   184.0000 </r>
       <r>   -12.8109     0.0000   188.0000 </r>
       <r>   -12.6197   186.1186   196.0869 </r>
       <r>   -12.4285     0.0000   208.0000 </r>
       <r>   -12.2373     0.0000   216.0000 </r>
       <r>   -12.0461     0.0000   216.0000 </r>
       <r>   -11.8549     0.0000   216.0000 </r>
       <r>   -11.6637     0.0000   216.0000 </r>
       <r>   -11.4725     0.0000   216.0000 </r>
       <r>   -11.2813     0.0000   216.0000 </r>
       <r>   -11.0901     0.0000   216.0000 </r>
       <r>   -10.8989     0.0000   216.0000 </r>
       <r>   -10.7077     0.0000   216.0000 </r>
       <r>   -10.5165     0.0000   216.0000 </r>
       <r>   -10.3253     0.0000   216.0000 </r>
       <r>   -10.1341     0.0000   216.0000 </r>
       <r>    -9.9429     0.0000   216.0000 </r>
       <r>    -9.7517     0.0000   216.0000 </r>
       <r>    -9.5605     0.0000   216.0000 </r>
       <r>    -9.3693     0.0000   216.0000 </r>
       <r>    -9.1781    11.1006   216.6640 </r>
       <r>    -8.9869    14.2481   218.3518 </r>
       <r>    -8.7957     2.7737   220.0766 </r>
       <r>    -8.6045    26.0150   222.2492 </r>
       <r>    -8.4133    43.5040   225.0226 </r>
       <r>    -8.2221    22.9975   230.1305 </r>
       <r>    -8.0309     0.0000   232.0000 </r>
       <r>    -7.8397    32.1137   238.0948 </r>
       <r>    -7.6485    16.8030   243.2363 </r>
       <r>    -7.4573    24.7768   245.8268 </r>
       <r>    -7.2661     0.0000   248.0000 </r>
       <r>    -7.0749     0.0000   248.0000 </r>
       <r>    -6.8836     0.0000   248.0000 </r>
       <r>    -6.6924     0.0000   248.0000 </r>
       <r>    -6.5012     0.0000   248.0000 </r>
       <r>    -6.3100     0.0000   248.0000 </r>
       <r>    -6.1188     8.3529   248.2829 </r>
       <r>    -5.9276    49.6792   252.5622 </r>
       <r>    -5.7364     7.5554   256.1595 </r>
       <r>    -5.5452    32.2604   260.6551 </r>
       <r>    -5.3540    23.1856   265.5082 </r>
       <r>    -5.1628    15.4447   269.8286 </r>
       <r>    -4.9716     5.1868   271.7913 </r>
       <r>    -4.7804     6.9071   272.4562 </r>
       <r>    -4.5892    13.5599   274.5467 </r>
       <r>    -4.3980     5.2759   276.3080 </r>
       <r>    -4.2068     6.2534   277.2409 </r>
       <r>    -4.0156     8.4848   278.7894 </r>
       <r>    -3.8244     2.1551   279.6481 </r>
       <r>    -3.6332     0.8846   279.9386 </r>
       <r>    -3.4420     0.0000   280.0000 </r>
       <r>    -3.2508     0.0000   280.0000 </r>
       <r>    -3.0596     0.0000   280.0000 </r>
       <r>    -2.8684     0.0000   280.0000 </r>
       <r>    -2.6772     0.0000   280.0000 </r>
       <r>    -2.4860     0.0000   280.0000 </r>
       <r>    -2.2948     0.0000   280.0000 </r>
       <r>    -2.1036     0.0000   280.0000 </r>
       <r>    -1.9124     0.0000   280.0000 </r>
       <r>    -1.7212     0.0000   280.0000 </r>
       <r>    -1.5300     0.0000   280.0000 </r>
       <r>    -1.3388     0.0000   280.0000 </r>
       <r>    -1.1476     4.4303   280.1858 </r>
       <r>    -0.9564     7.6219   281.6314 </r>
       <r>    -0.7652     8.2108   282.7950 </r>
       <r>    -0.5740    12.7245   285.1466 </r>
       <r>    -0.3828     7.6272   286.9620 </r>
       <r>    -0.1916    22.8966   289.6538 </r>
       <r>    -0.0004    25.6608   294.5798 </r>
       <r>     0.1908    39.8512   301.8701 </r>
       <r>     0.3820    31.5760   308.8142 </r>
       <r>     0.5732    34.4042   317.0614 </r>
       <r>     0.7644    41.5078   323.2199 </r>
       <r>     0.9556    25.2359   329.2257 </r>
       <r>     1.1468    40.2852   336.5693 </r>
       <r>     1.3380    39.3846   345.5554 </r>
       <r>     1.5292    46.4996   353.9528 </r>
       <r>     1.7204    52.6766   362.8956 </r>
       <r>     1.9116    54.6928   372.9033 </r>
       <r>     2.1028    46.4143   382.7546 </r>
       <r>     2.2940    42.6379   391.0943 </r>
       <r>     2.4852    53.4772   400.2304 </r>
       <r>     2.6764    75.6567   413.4420 </r>
       <r>     2.8676    52.7465   426.4779 </r>
       <r>     3.0588    69.9170   439.0028 </r>
       <r>     3.2500    40.8216   449.4858 </r>
       <r>     3.4412    23.6476   456.6584 </r>
       <r>     3.6324    46.5479   463.5458 </r>
       <r>     3.8237    15.5055   468.3107 </r>
       <r>     4.0149     9.2538   470.6774 </r>
       <r>     4.2061     3.0192   471.8505 </r>
       <r>     4.3973     0.0000   472.0000 </r>
       <r>     4.5885     0.0000   472.0000 </r>
       <r>     4.7797     0.0000   472.0000 </r>
       <r>     4.9709     0.0000   472.0000 </r>
       <r>     5.1621     0.0000   472.0000 </r>
       <r>     5.3533     0.2939   472.0046 </r>
       <r>     5.5445     5.6785   472.5466 </r>
       <r>     5.7357    10.9398   474.1755 </r>
       <r>     5.9269    26.1493   476.2929 </r>
       <r>     6.1181    14.9347   480.6725 </r>
       <r>     6.3093    13.0565   483.3052 </r>
       <r>     6.5005    13.1403   485.7673 </r>
       <r>     6.6917    14.5579   488.4156 </r>
       <r>     6.8829    16.1027   491.3377 </r>
       <r>     7.0741    19.2620   494.6847 </r>
       <r>     7.2653    22.4699   498.7007 </r>
       <r>     7.4565    27.2173   503.4536 </r>
       <r>     7.6477    39.1829   510.5680 </r>
       <r>     7.8389    31.6961   516.2906 </r>
       <r>     8.0301    29.6402   522.6731 </r>
       <r>     8.2213    32.0167   529.2729 </r>
       <r>     8.4125    26.2442   534.8612 </r>
       <r>     8.6037    25.9046   539.5389 </r>
       <r>     8.7949    34.8132   545.1999 </r>
       <r>     8.9861    43.7617   552.7719 </r>
       <r>     9.1773    24.9355   559.0390 </r>
       <r>     9.3685    17.7685   563.1283 </r>
       <r>     9.5597    10.2271   565.6479 </r>
       <r>     9.7509    13.0272   567.4723 </r>
       <r>     9.9421    12.0673   569.3523 </r>
       <r>    10.1333    12.7115   571.4489 </r>
       <r>    10.3245    12.6412   573.8097 </r>
       <r>    10.5157    18.9891   576.5905 </r>
       <r>    10.7069    36.7484   581.6878 </r>
       <r>    10.8981    38.3447   587.7364 </r>
       <r>    11.0893    24.9752   594.8676 </r>
       <r>    11.2805    24.8587   598.5335 </r>
       <r>    11.4717    32.3954   603.8733 </r>
       <r>    11.6629    28.0592   609.7963 </r>
       <r>    11.8541    15.4343   613.9072 </r>
       <r>    12.0453     4.0693   615.6999 </r>
       <r>    12.2365     0.2079   615.9952 </r>
       <r>    12.4277     0.0000   616.0000 </r>
       <r>    12.6189     0.0000   616.0000 </r>
       <r>    12.8101     0.0000   616.0000 </r>
       <r>    13.0013     0.0000   616.0000 </r>
       <r>    13.1925     0.0000   616.0000 </r>
       <r>    13.3837     0.0000   616.0000 </r>
       <r>    13.5749     0.0000   616.0000 </r>
       <r>    13.7661     0.0000   616.0000 </r>
       <r>    13.9573     0.0000   616.0000 </r>
       <r>    14.1485     0.0000   616.0000 </r>
       <r>    14.3397     0.0000   616.0000 </r>
       <r>    14.5310     0.0000   616.0000 </r>
       <r>    14.7222     0.0000   616.0000 </r>
       <r>    14.9134     0.0000   616.0000 </r>
      </set>
     </set>
    </array>
   </total>
  </dos>
 </calculation>
 <structure name="finalpos" >
  <crystal>
   <varray name="basis" >
    <v>      11.17500309       0.10592718       0.00577906 </v>
    <v>       0.08929561       9.48440744       0.03407474 </v>
    <v>       0.00684252       0.04073052      11.17553824 </v>
   </varray>
   <i name="volume">   1184.35455737 </i>
   <varray name="rec_basis" >
    <v>       0.08949345      -0.00084239      -0.00005172 </v>
    <v>      -0.00099933       0.10544700      -0.00038370 </v>
    <v>      -0.00004323      -0.00032108       0.08948235 </v>
   </varray>
  </crystal>
  <varray name="positions" >
   <v>       0.38099433       0.00307585       0.43783053 </v>
   <v>       0.13441309       0.97944464       0.30897105 </v>
   <v>       0.62922448       0.00602346       0.43081224 </v>
   <v>       0.88109400       0.00102242       0.42954936 </v>
   <v>       0.62333000       0.00604626       0.19303402 </v>
   <v>       0.88065372      -0.00522590       0.17360867 </v>
   <v>       0.36987831       0.01035966       0.06988153 </v>
   <v>       0.12689386       0.00331311       0.66295081 </v>
   <v>       0.35977507      -0.00814860       0.70727797 </v>
   <v>       0.61905647      -0.00323176       0.94278152 </v>
   <v>       0.86487240      -0.00258521       0.92834538 </v>
   <v>       0.88228706      -0.00448051       0.68481318 </v>
   <v>       0.11846719      -0.00015082       0.92675253 </v>
   <v>       0.62664435       0.00379921       0.68101331 </v>
   <v>      -0.00089538       0.30072061       0.05585331 </v>
   <v>       0.24777715       0.68985046       0.05740592 </v>
   <v>       0.25306228       0.30182954       0.31171781 </v>
   <v>       0.50082424       0.70840215       0.31172066 </v>
   <v>       0.50359224       0.30564743       0.05925577 </v>
   <v>       0.75039694       0.69908561       0.05993662 </v>
   <v>       0.75001970       0.30217862       0.30770984 </v>
   <v>      -0.00405732       0.69362187       0.30905413 </v>
   <v>      -0.00077994       0.29479889       0.55655328 </v>
   <v>       0.25339614       0.70207021       0.55978308 </v>
   <v>       0.24484456       0.30328825       0.80614722 </v>
   <v>       0.50083021       0.69745126       0.80859165 </v>
   <v>       0.50042470       0.31355910       0.55598976 </v>
   <v>       0.75145947       0.69306918       0.55822857 </v>
   <v>       0.74819149       0.30563610       0.80703934 </v>
   <v>       0.00011386       0.68773265       0.80854883 </v>
   <v>       0.25324435       0.28039071       0.05587941 </v>
   <v>       0.00003081       0.64637401       0.05861121 </v>
   <v>       0.50154667       0.35416869       0.30691673 </v>
   <v>       0.24448688       0.71754126       0.30855150 </v>
   <v>       0.75210183       0.34972155       0.05792599 </v>
   <v>       0.49921118       0.68577350       0.05851230 </v>
   <v>       0.00080339       0.32585688       0.30791262 </v>
   <v>       0.74767010       0.64978129       0.30838783 </v>
   <v>       0.25216102       0.34959982       0.55915518 </v>
   <v>      -0.00158613       0.66491993       0.55967266 </v>
   <v>       0.50373232       0.33845879       0.80729817 </v>
   <v>       0.24670498       0.64459056       0.81014236 </v>
   <v>       0.75255281       0.35243023       0.56011587 </v>
   <v>       0.50101377       0.64898598       0.56068945 </v>
   <v>       0.00116740       0.35449547       0.80815531 </v>
   <v>       0.74629046       0.65011984       0.80811987 </v>
   <v>       0.52333644       0.08960967       0.06386822 </v>
   <v>       0.23627640       0.90327184       0.03092258 </v>
   <v>       0.26458649       0.09158214       0.33191895 </v>
   <v>      -0.02299739       0.91023257       0.30286200 </v>
   <v>      -0.01382116       0.08357497       0.03076991 </v>
   <v>       0.75399826       0.91828460       0.05496030 </v>
   <v>       0.74947470       0.08351231       0.31031573 </v>
   <v>       0.51899301       0.92110952       0.32618754 </v>
   <v>       0.51624402       0.09152132       0.55987003 </v>
   <v>       0.26915628       0.91517655       0.57976901 </v>
   <v>       0.21982914       0.08537159       0.79525425 </v>
   <v>      -0.00258881       0.91157378       0.81403327 </v>
   <v>       0.98592784       0.07970732       0.56903560 </v>
   <v>       0.74485212       0.91676803       0.56587232 </v>
   <v>       0.74591421       0.08065153       0.80010397 </v>
   <v>       0.51290197       0.91671000       0.79339199 </v>
  </varray>
 </structure>
</modeling>
