<?xml version="1.0" encoding="ISO-8859-1"?>
<modeling>
 <generator>
  <i name="program" type="string">vasp </i>
  <i name="version" type="string">5.4.4.18Apr17-6-g9f103f2a35  </i>
  <i name="subversion" type="string">(build Jul 31 2017 11:33:29) complex            parallel </i>
  <i name="platform" type="string">LinuxIFC </i>
  <i name="date" type="string">2021 09 29 </i>
  <i name="time" type="string">15:12:24 </i>
 </generator>
 <incar>
  <i type="string" name="SYSTEM"> La2O2S</i>
  <i type="string" name="PREC">normal</i>
  <i type="int" name="NELMIN">     4</i>
  <i type="int" name="IBRION">     2</i>
  <i type="int" name="NFREE">    10</i>
  <i name="EDIFF">      0.00000100</i>
  <i name="EDIFFG">     -0.01000000</i>
  <i type="int" name="NSW">     1</i>
  <i type="int" name="ISIF">     2</i>
  <i name="ENCUT">    600.00000000</i>
  <i name="ENAUG">    900.00000000</i>
  <i type="int" name="ISMEAR">    -5</i>
  <i type="logical" name="LWAVE"> F  </i>
  <i type="logical" name="LCHARG"> F  </i>
  <v type="int" name="KPOINT_BSE">    -1     0     0     0</v>
 </incar>
 <structure name="primitive_cell" >
  <crystal>
   <varray name="basis" >
    <v>      11.17850000       0.00000000       0.00000000 </v>
    <v>       0.00000000       9.57460000       0.00000000 </v>
    <v>       0.00000000       0.00000000      11.18240000 </v>
   </varray>
   <i name="volume">   1196.84853820 </i>
   <varray name="rec_basis" >
    <v>       0.08945744       0.00000000       0.00000000 </v>
    <v>       0.00000000       0.10444301       0.00000000 </v>
    <v>       0.00000000       0.00000000       0.08942624 </v>
   </varray>
  </crystal>
  <varray name="positions" >
   <v>       0.37539000       0.00017000       0.43687000 </v>
   <v>      -0.49987000      -0.07798000       0.31246000 </v>
   <v>       0.25013000       0.07798000       0.31246000 </v>
   <v>       0.49987000       0.07798000      -0.43754000 </v>
   <v>       0.24987000      -0.07798000      -0.43754000 </v>
   <v>       0.37461000       0.00017000      -0.31313000 </v>
   <v>       0.49987000      -0.29519000       0.31282000 </v>
   <v>       0.24987000       0.29519000       0.31282000 </v>
   <v>      -0.49987000       0.29519000      -0.43719000 </v>
   <v>       0.25013000      -0.29519000      -0.43719000 </v>
   <v>       0.49995000       0.32677000       0.31286000 </v>
   <v>       0.24995000      -0.32677000       0.31286000 </v>
   <v>      -0.49995000      -0.32677000      -0.43714000 </v>
   <v>       0.25005000       0.32677000      -0.43714000 </v>
   <v>      -0.37539000      -0.00016000      -0.31313000 </v>
   <v>      -0.37539000      -0.00016000       0.18687000 </v>
   <v>       0.12461000      -0.00016000      -0.31313000 </v>
   <v>       0.12461000      -0.00016000       0.18687000 </v>
   <v>       0.49987000       0.07798000       0.06246000 </v>
   <v>      -0.24987000       0.07798000       0.31246000 </v>
   <v>      -0.25013000      -0.07798000      -0.43754000 </v>
   <v>       0.24987000      -0.07798000       0.06246000 </v>
   <v>       0.00013000      -0.07798000       0.31246000 </v>
   <v>      -0.49987000      -0.07798000      -0.18754000 </v>
   <v>      -0.00013000       0.07798000      -0.43754000 </v>
   <v>       0.25013000       0.07798000      -0.18754000 </v>
   <v>      -0.49987000       0.29519000       0.06281000 </v>
   <v>      -0.25013000       0.29519000       0.31282000 </v>
   <v>       0.25013000      -0.29519000       0.06281000 </v>
   <v>      -0.24987000      -0.29519000      -0.43719000 </v>
   <v>      -0.00013000      -0.29519000       0.31282000 </v>
   <v>       0.00013000       0.29519000      -0.43719000 </v>
   <v>       0.49987000      -0.29519000      -0.18718000 </v>
   <v>       0.24987000       0.29519000      -0.18718000 </v>
   <v>      -0.49995000      -0.32677000       0.06286000 </v>
   <v>       0.25005000       0.32677000       0.06286000 </v>
   <v>      -0.25005000      -0.32677000       0.31286000 </v>
   <v>      -0.24995000       0.32677000      -0.43714000 </v>
   <v>      -0.00005000       0.32677000       0.31286000 </v>
   <v>       0.00005000      -0.32677000      -0.43714000 </v>
   <v>       0.49995000       0.32677000      -0.18714000 </v>
   <v>       0.24995000      -0.32677000      -0.18714000 </v>
   <v>      -0.12461000       0.00017000       0.43687000 </v>
   <v>       0.37539000       0.00017000      -0.06313000 </v>
   <v>      -0.25013000      -0.07798000       0.06246000 </v>
   <v>      -0.00013000       0.07798000       0.06246000 </v>
   <v>      -0.24987000       0.07798000      -0.18754000 </v>
   <v>       0.00013000      -0.07798000      -0.18754000 </v>
   <v>      -0.12539000       0.00017000      -0.31313000 </v>
   <v>      -0.37461000      -0.00016000      -0.06313000 </v>
   <v>      -0.24987000      -0.29519000       0.06281000 </v>
   <v>       0.00013000       0.29519000       0.06281000 </v>
   <v>      -0.25013000       0.29519000      -0.18718000 </v>
   <v>      -0.00013000      -0.29519000      -0.18718000 </v>
   <v>      -0.24995000       0.32677000       0.06286000 </v>
   <v>       0.00005000      -0.32677000       0.06286000 </v>
   <v>      -0.25005000      -0.32677000      -0.18714000 </v>
   <v>      -0.00005000       0.32677000      -0.18714000 </v>
   <v>      -0.12461000       0.00017000      -0.06313000 </v>
  </varray>
 </structure>
 <varray name="primitive_index" >
  <v type="int" >        1 </v>
  <v type="int" >       51 </v>
  <v type="int" >       46 </v>
  <v type="int" >       52 </v>
  <v type="int" >       53 </v>
  <v type="int" >        3 </v>
  <v type="int" >       15 </v>
  <v type="int" >       14 </v>
  <v type="int" >       24 </v>
  <v type="int" >       21 </v>
  <v type="int" >       30 </v>
  <v type="int" >       31 </v>
  <v type="int" >       41 </v>
  <v type="int" >       36 </v>
  <v type="int" >        5 </v>
  <v type="int" >        9 </v>
  <v type="int" >        2 </v>
  <v type="int" >        7 </v>
  <v type="int" >       44 </v>
  <v type="int" >       50 </v>
  <v type="int" >       57 </v>
  <v type="int" >       45 </v>
  <v type="int" >       47 </v>
  <v type="int" >       59 </v>
  <v type="int" >       56 </v>
  <v type="int" >       54 </v>
  <v type="int" >       16 </v>
  <v type="int" >       18 </v>
  <v type="int" >       13 </v>
  <v type="int" >       25 </v>
  <v type="int" >       19 </v>
  <v type="int" >       20 </v>
  <v type="int" >       23 </v>
  <v type="int" >       22 </v>
  <v type="int" >       33 </v>
  <v type="int" >       28 </v>
  <v type="int" >       35 </v>
  <v type="int" >       40 </v>
  <v type="int" >       34 </v>
  <v type="int" >       37 </v>
  <v type="int" >       38 </v>
  <v type="int" >       39 </v>
  <v type="int" >        8 </v>
  <v type="int" >       10 </v>
  <v type="int" >       49 </v>
  <v type="int" >       48 </v>
  <v type="int" >       58 </v>
  <v type="int" >       55 </v>
  <v type="int" >        6 </v>
  <v type="int" >        4 </v>
  <v type="int" >       17 </v>
  <v type="int" >       12 </v>
  <v type="int" >       26 </v>
  <v type="int" >       27 </v>
  <v type="int" >       32 </v>
  <v type="int" >       29 </v>
  <v type="int" >       43 </v>
  <v type="int" >       42 </v>
  <v type="int" >       11 </v>
 </varray>
 <kpoints>
  <generation param="Gamma">
   <v type="int" name="divisions">       2        2        2 </v>
   <v name="usershift">      0.00000000       0.00000000       0.00000000 </v>
   <v name="genvec1">      0.50000000       0.00000000       0.00000000 </v>
   <v name="genvec2">      0.00000000       0.50000000       0.00000000 </v>
   <v name="genvec3">      0.00000000       0.00000000       0.50000000 </v>
   <v name="shift">      0.00000000       0.00000000       0.00000000 </v>
  </generation>
  <varray name="kpointlist" >
   <v>       0.00000000       0.00000000       0.00000000 </v>
   <v>       0.50000000       0.00000000       0.00000000 </v>
   <v>       0.00000000       0.50000000       0.00000000 </v>
   <v>       0.50000000       0.50000000       0.00000000 </v>
   <v>       0.00000000       0.00000000       0.50000000 </v>
   <v>       0.50000000       0.00000000       0.50000000 </v>
   <v>       0.00000000       0.50000000       0.50000000 </v>
   <v>       0.50000000       0.50000000       0.50000000 </v>
  </varray>
  <varray name="weights" >
   <v>       0.12500000 </v>
   <v>       0.12500000 </v>
   <v>       0.12500000 </v>
   <v>       0.12500000 </v>
   <v>       0.12500000 </v>
   <v>       0.12500000 </v>
   <v>       0.12500000 </v>
   <v>       0.12500000 </v>
  </varray>
  <varray name="tetrahedronlist"  type="int" >
   <v type="int" >        2        1        2        4        5 </v>
   <v type="int" >        2        1        3        4        5 </v>
   <v type="int" >        2        3        4        5        7 </v>
   <v type="int" >        2        2        4        5        6 </v>
   <v type="int" >        2        4        5        6        8 </v>
   <v type="int" >        2        4        5        7        8 </v>
   <v type="int" >        2        1        2        3        6 </v>
   <v type="int" >        2        2        3        4        6 </v>
   <v type="int" >        2        3        4        6        8 </v>
   <v type="int" >        2        1        3        5        6 </v>
   <v type="int" >        2        3        5        6        7 </v>
   <v type="int" >        2        3        6        7        8 </v>
   <v type="int" >        2        2        3        4        7 </v>
   <v type="int" >        2        1        2        3        7 </v>
   <v type="int" >        2        1        2        5        7 </v>
   <v type="int" >        2        2        4        7        8 </v>
   <v type="int" >        2        2        6        7        8 </v>
   <v type="int" >        2        2        5        6        7 </v>
   <v type="int" >        2        1        3        4        8 </v>
   <v type="int" >        2        1        2        4        8 </v>
   <v type="int" >        2        1        2        6        8 </v>
   <v type="int" >        2        1        3        7        8 </v>
   <v type="int" >        2        1        5        7        8 </v>
   <v type="int" >        2        1        5        6        8 </v>
  </varray>
  <i name="volumeweight">      0.02083333 </i>
 </kpoints>
 <parameters>
  <separator name="general" >
   <i type="string" name="SYSTEM">La2O2S</i>
   <i type="logical" name="LCOMPAT"> F  </i>
  </separator>
  <separator name="electronic" >
   <i type="string" name="PREC">normal</i>
   <i name="ENMAX">    600.00000000</i>
   <i name="ENAUG">    900.00000000</i>
   <i name="EDIFF">      0.00000100</i>
   <i type="int" name="IALGO">    38</i>
   <i type="int" name="IWAVPR">    11</i>
   <i type="int" name="NBANDS">   280</i>
   <i name="NELECT">    460.00000000</i>
   <i type="int" name="TURBO">     0</i>
   <i type="int" name="IRESTART">     0</i>
   <i type="int" name="NREBOOT">     0</i>
   <i type="int" name="NMIN">     0</i>
   <i name="EREF">      0.00000000</i>
   <separator name="electronic smearing" >
    <i type="int" name="ISMEAR">    -5</i>
    <i name="SIGMA">      0.20000000</i>
    <i name="KSPACING">      0.50000000</i>
    <i type="logical" name="KGAMMA"> T  </i>
   </separator>
   <separator name="electronic projectors" >
    <i type="logical" name="LREAL"> F  </i>
    <v name="ROPT">      0.00000000      0.00000000      0.00000000      0.00000000      0.00000000</v>
    <i type="int" name="LMAXPAW">  -100</i>
    <i type="int" name="LMAXMIX">     2</i>
    <i type="logical" name="NLSPLINE"> F  </i>
   </separator>
   <separator name="electronic startup" >
    <i type="int" name="ISTART">     0</i>
    <i type="int" name="ICHARG">     2</i>
    <i type="int" name="INIWAV">     1</i>
   </separator>
   <separator name="electronic spin" >
    <i type="int" name="ISPIN">     1</i>
    <i type="logical" name="LNONCOLLINEAR"> F  </i>
    <v name="MAGMOM">      1.00000000      1.00000000      1.00000000      1.00000000      1.00000000      1.00000000      1.00000000      1.00000000      1.00000000      1.00000000      1.00000000      1.00000000      1.00000000      1.00000000      1.00000000      1.00000000      1.00000000      1.00000000      1.00000000      1.00000000
      1.00000000      1.00000000      1.00000000      1.00000000      1.00000000      1.00000000      1.00000000      1.00000000      1.00000000      1.00000000      1.00000000      1.00000000      1.00000000      1.00000000      1.00000000      1.00000000      1.00000000      1.00000000      1.00000000      1.00000000
      1.00000000      1.00000000      1.00000000      1.00000000      1.00000000      1.00000000      1.00000000      1.00000000      1.00000000      1.00000000      1.00000000      1.00000000      1.00000000      1.00000000      1.00000000      1.00000000      1.00000000      1.00000000      1.00000000</v>
    <i name="NUPDOWN">     -1.00000000</i>
    <i type="logical" name="LSORBIT"> F  </i>
    <v name="SAXIS">      0.00000000      0.00000000      1.00000000</v>
    <i type="logical" name="LSPIRAL"> F  </i>
    <v name="QSPIRAL">      0.00000000      0.00000000      0.00000000</v>
    <i type="logical" name="LZEROZ"> F  </i>
   </separator>
   <separator name="electronic exchange-correlation" >
    <i type="logical" name="LASPH"> F  </i>
    <i type="logical" name="LMETAGGA"> F  </i>
   </separator>
   <separator name="electronic convergence" >
    <i type="int" name="NELM">    60</i>
    <i type="int" name="NELMDL">    -5</i>
    <i type="int" name="NELMIN">     4</i>
    <i name="ENINI">    600.00000000</i>
    <separator name="electronic convergence detail" >
     <i type="logical" name="LDIAG"> T  </i>
     <i type="logical" name="LSUBROT"> F  </i>
     <i name="WEIMIN">      0.00100000</i>
     <i name="EBREAK">      0.00000000</i>
     <i name="DEPER">      0.30000000</i>
     <i type="int" name="NRMM">     4</i>
     <i name="TIME">      0.40000000</i>
    </separator>
   </separator>
   <separator name="electronic mixer" >
    <i name="AMIX">      0.40000000</i>
    <i name="BMIX">      1.00000000</i>
    <i name="AMIN">      0.10000000</i>
    <i name="AMIX_MAG">      1.60000000</i>
    <i name="BMIX_MAG">      1.00000000</i>
    <separator name="electronic mixer details" >
     <i type="int" name="IMIX">     4</i>
     <i type="logical" name="MIXFIRST"> F  </i>
     <i type="int" name="MAXMIX">   -45</i>
     <i name="WC">    100.00000000</i>
     <i type="int" name="INIMIX">     1</i>
     <i type="int" name="MIXPRE">     1</i>
     <i type="int" name="MREMOVE">     5</i>
    </separator>
   </separator>
   <separator name="electronic dipolcorrection" >
    <i type="logical" name="LDIPOL"> F  </i>
    <i type="logical" name="LMONO"> F  </i>
    <i type="int" name="IDIPOL">     0</i>
    <i name="EPSILON">      1.00000000</i>
    <v name="DIPOL">   -100.00000000   -100.00000000   -100.00000000</v>
    <i name="EFIELD">      0.00000000</i>
   </separator>
  </separator>
  <separator name="grids" >
   <i type="int" name="NGX">    70</i>
   <i type="int" name="NGY">    60</i>
   <i type="int" name="NGZ">    70</i>
   <i type="int" name="NGXF">   140</i>
   <i type="int" name="NGYF">   120</i>
   <i type="int" name="NGZF">   140</i>
   <i type="logical" name="ADDGRID"> F  </i>
  </separator>
  <separator name="ionic" >
   <i type="int" name="NSW">     1</i>
   <i type="int" name="IBRION">     2</i>
   <i type="int" name="MDALGO">     0</i>
   <i type="int" name="ISIF">     2</i>
   <i name="PSTRESS">      0.00000000</i>
   <i name="EDIFFG">     -0.01000000</i>
   <i type="int" name="NFREE">    10</i>
   <i name="POTIM">      0.50000000</i>
   <i name="SMASS">     -3.00000000</i>
   <i name="SCALEE">      1.00000000</i>
  </separator>
  <separator name="ionic md" >
   <i name="TEBEG">      0.00010000</i>
   <i name="TEEND">      0.00010000</i>
   <i type="int" name="NBLOCK">     1</i>
   <i type="int" name="KBLOCK">     1</i>
   <i type="int" name="NPACO">   256</i>
   <i name="APACO">     16.00000000</i>
  </separator>
  <separator name="symmetry" >
   <i type="int" name="ISYM">     2</i>
   <i name="SYMPREC">      0.00001000</i>
  </separator>
  <separator name="dos" >
   <i type="int" name="LORBIT">     0</i>
   <v name="RWIGS">     -1.00000000     -1.00000000     -1.00000000     -1.00000000     -1.00000000</v>
   <i type="int" name="NEDOS">   301</i>
   <i name="EMIN">     10.00000000</i>
   <i name="EMAX">    -10.00000000</i>
   <i name="EFERMI">      0.00000000</i>
  </separator>
  <separator name="writing" >
   <i type="int" name="NWRITE">     2</i>
   <i type="logical" name="LWAVE"> F  </i>
   <i type="logical" name="LDOWNSAMPLE"> F  </i>
   <i type="logical" name="LCHARG"> F  </i>
   <i type="logical" name="LPARD"> F  </i>
   <i type="logical" name="LVTOT"> F  </i>
   <i type="logical" name="LVHAR"> F  </i>
   <i type="logical" name="LELF"> F  </i>
   <i type="logical" name="LOPTICS"> F  </i>
   <v name="STM">      0.00000000      0.00000000      0.00000000      0.00000000      0.00000000      0.00000000      0.00000000</v>
  </separator>
  <separator name="performance" >
   <i type="int" name="NPAR">    28</i>
   <i type="int" name="NSIM">     4</i>
   <i type="int" name="NBLK">    -1</i>
   <i type="logical" name="LPLANE"> T  </i>
   <i type="logical" name="LSCALAPACK"> T  </i>
   <i type="logical" name="LSCAAWARE"> F  </i>
   <i type="logical" name="LSCALU"> F  </i>
   <i type="logical" name="LASYNC"> F  </i>
   <i type="logical" name="LORBITALREAL"> F  </i>
  </separator>
  <separator name="miscellaneous" >
   <i type="int" name="IDIOT">     3</i>
   <i type="int" name="ISPECIAL">     0</i>
   <i type="logical" name="LMUSIC"> F  </i>
   <v name="POMASS">      7.01000000     24.30500000    208.98000000     32.06600000     16.00000000</v>
   <v name="DARWINR">      0.00000000      0.00000000      0.00000000      0.00000000      0.00000000</v>
   <v name="DARWINV">      1.00000000      1.00000000      1.00000000      1.00000000      1.00000000</v>
   <i type="logical" name="LCORR"> T  </i>
  </separator>
  <i type="logical" name="GGA_COMPAT"> T  </i>
  <i type="logical" name="LBERRY"> F  </i>
  <i type="int" name="ICORELEVEL">     0</i>
  <i type="logical" name="LDAU"> F  </i>
  <i type="int" name="I_CONSTRAINED_M">     0</i>
  <separator name="electronic exchange-correlation" >
   <i type="string" name="GGA">--</i>
   <i type="int" name="VOSKOWN">     0</i>
   <i type="logical" name="LHFCALC"> F  </i>
   <i type="string" name="PRECFOCK"></i>
   <i type="logical" name="LSYMGRAD"> F  </i>
   <i type="logical" name="LHFONE"> F  </i>
   <i type="logical" name="LRHFCALC"> F  </i>
   <i type="logical" name="LTHOMAS"> F  </i>
   <i type="logical" name="LMODELHF"> F  </i>
   <i name="ENCUT4O">     -1.00000000</i>
   <i type="int" name="EXXOEP">     0</i>
   <i type="int" name="FOURORBIT">     0</i>
   <i name="AEXX">      0.00000000</i>
   <i name="HFALPHA">      0.00000000</i>
   <i name="MCALPHA">      0.00000000</i>
   <i name="ALDAX">      1.00000000</i>
   <i name="AGGAX">      1.00000000</i>
   <i name="ALDAC">      1.00000000</i>
   <i name="AGGAC">      1.00000000</i>
   <i type="int" name="NKREDX">     1</i>
   <i type="int" name="NKREDY">     1</i>
   <i type="int" name="NKREDZ">     1</i>
   <i type="logical" name="SHIFTRED"> F  </i>
   <i type="logical" name="ODDONLY"> F  </i>
   <i type="logical" name="EVENONLY"> F  </i>
   <i type="int" name="LMAXFOCK">     0</i>
   <i type="int" name="NMAXFOCKAE">     0</i>
   <i type="logical" name="LFOCKAEDFT"> F  </i>
   <i name="HFSCREEN">      0.00000000</i>
   <i name="HFSCREENC">      0.00000000</i>
   <i type="int" name="NBANDSGWLOW">     0</i>
  </separator>
  <separator name="vdW DFT" >
   <i type="logical" name="LUSE_VDW"> F  </i>
   <i name="Zab_VDW">     -0.84910000</i>
   <i name="PARAM1">      0.12340000</i>
   <i name="PARAM2">      1.00000000</i>
   <i name="PARAM3">      0.00000000</i>
  </separator>
  <separator name="model GW" >
   <i type="int" name="MODEL_GW">     0</i>
   <i name="MODEL_EPS0">     12.17134107</i>
   <i name="MODEL_ALPHA">      1.00000000</i>
  </separator>
  <separator name="linear response parameters" >
   <i type="logical" name="LEPSILON"> F  </i>
   <i type="logical" name="LRPA"> F  </i>
   <i type="logical" name="LNABLA"> F  </i>
   <i type="logical" name="LVEL"> F  </i>
   <i type="int" name="KINTER">     0</i>
   <i name="CSHIFT">      0.10000000</i>
   <i name="OMEGAMAX">     -1.00000000</i>
   <i name="DEG_THRESHOLD">      0.00200000</i>
   <i name="RTIME">     -0.10000000</i>
   <i name="WPLASMAI">      0.00000000</i>
   <v name="DFIELD">      0.00000000      0.00000000      0.00000000</v>
   <v name="WPLASMA">      0.00000000      0.00000000      0.00000000      0.00000000      0.00000000      0.00000000      0.00000000      0.00000000      0.00000000</v>
  </separator>
  <separator name="orbital magnetization" >
   <i type="logical" name="NUCIND"> F  </i>
   <v name="MAGPOS">      0.00000000      0.00000000      0.00000000</v>
   <i type="logical" name="LNICSALL"> T  </i>
   <i type="logical" name="ORBITALMAG"> F  </i>
   <i type="logical" name="LMAGBLOCH"> F  </i>
   <i type="logical" name="LCHIMAG"> F  </i>
   <i type="logical" name="LGAUGE"> T  </i>
   <i type="int" name="MAGATOM">     0</i>
   <v name="MAGDIPOL">      0.00000000      0.00000000      0.00000000</v>
   <v name="AVECCONST">      0.00000000      0.00000000      0.00000000</v>
  </separator>
  <separator name="response functions" >
   <i type="logical" name="LADDER"> F  </i>
   <i type="logical" name="LRPAFORCE"> F  </i>
   <i type="logical" name="LFXC"> F  </i>
   <i type="logical" name="LHARTREE"> T  </i>
   <i type="int" name="IBSE">     0</i>
   <v type="int" name="KPOINT">    -1     0     0     0</v>
   <i type="logical" name="LTCTE"> F  </i>
   <i type="logical" name="LTETE"> F  </i>
   <i type="logical" name="LTRIPLET"> F  </i>
   <i type="logical" name="LFXCEPS"> F  </i>
   <i type="logical" name="LFXHEG"> F  </i>
   <i type="int" name="NATURALO">     2</i>
   <i type="logical" name="L2ORDER"> F  </i>
   <i type="logical" name="LMP2LT"> F  </i>
   <i type="logical" name="LUSEW"> F  </i>
   <i name="ENCUTGW">     -2.00000000</i>
   <i name="ENCUTGWSOFT">     -2.00000000</i>
   <i name="ENCUTLF">     -1.00000000</i>
   <i type="int" name="LMAXMP2">    -1</i>
   <i name="SCISSOR">      0.00000000</i>
   <i type="int" name="NOMEGA">     0</i>
   <i type="int" name="NOMEGAR">     0</i>
   <i type="int" name="NBANDSGW">    -1</i>
   <i type="int" name="NBANDSO">    -1</i>
   <i type="int" name="NBANDSV">    -1</i>
   <i type="int" name="NELM">     1</i>
   <i type="int" name="NELMHF">     1</i>
   <i type="int" name="DIM">     3</i>
   <i type="int" name="ANTIRES">     0</i>
   <i name="OMEGAMAX">    -30.00000000</i>
   <i name="OMEGAMIN">    -30.00000000</i>
   <i name="OMEGATL">   -200.00000000</i>
   <i type="int" name="OMEGAGRID">   140</i>
   <i name="CSHIFT">     -0.10000000</i>
   <i type="logical" name="SELFENERGY"> F  </i>
   <i type="logical" name="LSPECTRAL"> F  </i>
   <i type="logical" name="LSPECTRALGW"> F  </i>
   <i type="logical" name="LSINGLES"> F  </i>
   <i type="logical" name="LFERMIGW"> F  </i>
   <i type="logical" name="ODDONLYGW"> F  </i>
   <i type="logical" name="EVENONLYGW"> F  </i>
   <i type="int" name="NKREDLFX">     1</i>
   <i type="int" name="NKREDLFY">     1</i>
   <i type="int" name="NKREDLFZ">     1</i>
   <i type="int" name="MAXMEM">  2800</i>
   <i type="int" name="TELESCOPE">     0</i>
   <i type="int" name="TAUPAR">     1</i>
   <i type="int" name="OMEGAPAR">    -1</i>
   <i name="LAMBDA">      1.00000000</i>
  </separator>
  <separator name="External order field" >
   <i name="OFIELD_KAPPA">      0.00000000</i>
   <v name="OFIELD_K">      0.00000000      0.00000000      0.00000000</v>
   <i name="OFIELD_Q6_NEAR">      0.00000000</i>
   <i name="OFIELD_Q6_FAR">      0.00000000</i>
   <i name="OFIELD_A">      0.00000000</i>
  </separator>
 </parameters>
 <atominfo>
  <atoms>      59 </atoms>
  <types>       5 </types>
  <array name="atoms" >
   <dimension dim="1">ion</dimension>
   <field type="string">element</field>
   <field type="int">atomtype</field>
   <set>
    <rc><c>Li</c><c>   1</c></rc>
    <rc><c>Li</c><c>   1</c></rc>
    <rc><c>Li</c><c>   1</c></rc>
    <rc><c>Li</c><c>   1</c></rc>
    <rc><c>Li</c><c>   1</c></rc>
    <rc><c>Li</c><c>   1</c></rc>
    <rc><c>Mg</c><c>   2</c></rc>
    <rc><c>Mg</c><c>   2</c></rc>
    <rc><c>Mg</c><c>   2</c></rc>
    <rc><c>Mg</c><c>   2</c></rc>
    <rc><c>Mg</c><c>   2</c></rc>
    <rc><c>Bi</c><c>   3</c></rc>
    <rc><c>Bi</c><c>   3</c></rc>
    <rc><c>Bi</c><c>   3</c></rc>
    <rc><c>Bi</c><c>   3</c></rc>
    <rc><c>Bi</c><c>   3</c></rc>
    <rc><c>Bi</c><c>   3</c></rc>
    <rc><c>Bi</c><c>   3</c></rc>
    <rc><c>Bi</c><c>   3</c></rc>
    <rc><c>Bi</c><c>   3</c></rc>
    <rc><c>Bi</c><c>   3</c></rc>
    <rc><c>Bi</c><c>   3</c></rc>
    <rc><c>Bi</c><c>   3</c></rc>
    <rc><c>Bi</c><c>   3</c></rc>
    <rc><c>Bi</c><c>   3</c></rc>
    <rc><c>Bi</c><c>   3</c></rc>
    <rc><c>Bi</c><c>   3</c></rc>
    <rc><c>S </c><c>   4</c></rc>
    <rc><c>S </c><c>   4</c></rc>
    <rc><c>S </c><c>   4</c></rc>
    <rc><c>S </c><c>   4</c></rc>
    <rc><c>S </c><c>   4</c></rc>
    <rc><c>S </c><c>   4</c></rc>
    <rc><c>S </c><c>   4</c></rc>
    <rc><c>S </c><c>   4</c></rc>
    <rc><c>S </c><c>   4</c></rc>
    <rc><c>S </c><c>   4</c></rc>
    <rc><c>S </c><c>   4</c></rc>
    <rc><c>S </c><c>   4</c></rc>
    <rc><c>S </c><c>   4</c></rc>
    <rc><c>S </c><c>   4</c></rc>
    <rc><c>S </c><c>   4</c></rc>
    <rc><c>S </c><c>   4</c></rc>
    <rc><c>O </c><c>   5</c></rc>
    <rc><c>O </c><c>   5</c></rc>
    <rc><c>O </c><c>   5</c></rc>
    <rc><c>O </c><c>   5</c></rc>
    <rc><c>O </c><c>   5</c></rc>
    <rc><c>O </c><c>   5</c></rc>
    <rc><c>O </c><c>   5</c></rc>
    <rc><c>O </c><c>   5</c></rc>
    <rc><c>O </c><c>   5</c></rc>
    <rc><c>O </c><c>   5</c></rc>
    <rc><c>O </c><c>   5</c></rc>
    <rc><c>O </c><c>   5</c></rc>
    <rc><c>O </c><c>   5</c></rc>
    <rc><c>O </c><c>   5</c></rc>
    <rc><c>O </c><c>   5</c></rc>
    <rc><c>O </c><c>   5</c></rc>
   </set>
  </array>
  <array name="atomtypes" >
   <dimension dim="1">type</dimension>
   <field type="int">atomspertype</field>
   <field type="string">element</field>
   <field>mass</field>
   <field>valence</field>
   <field type="string">pseudopotential</field>
   <set>
    <rc><c>   6</c><c>Li</c><c>      7.01000000</c><c>      3.00000000</c><c>  PAW_PBE Li_sv 10Sep2004               </c></rc>
    <rc><c>   5</c><c>Mg</c><c>     24.30500000</c><c>      2.00000000</c><c>  PAW_PBE Mg 13Apr2007                  </c></rc>
    <rc><c>  16</c><c>Bi</c><c>    208.98000000</c><c>     15.00000000</c><c>  PAW_PBE Bi_d 06Sep2000                </c></rc>
    <rc><c>  16</c><c>S </c><c>     32.06600000</c><c>      6.00000000</c><c>  PAW_PBE S 06Sep2000                   </c></rc>
    <rc><c>  16</c><c>O </c><c>     16.00000000</c><c>      6.00000000</c><c>  PAW_PBE O 08Apr2002                   </c></rc>
   </set>
  </array>
 </atominfo>
 <structure name="initialpos" >
  <crystal>
   <varray name="basis" >
    <v>      11.17850000       0.00000000       0.00000000 </v>
    <v>       0.00000000       9.57460000       0.00000000 </v>
    <v>       0.00000000       0.00000000      11.18240000 </v>
   </varray>
   <i name="volume">   1196.84853820 </i>
   <varray name="rec_basis" >
    <v>       0.08945744       0.00000000       0.00000000 </v>
    <v>       0.00000000       0.10444301       0.00000000 </v>
    <v>       0.00000000       0.00000000       0.08942624 </v>
   </varray>
  </crystal>
  <varray name="positions" >
   <v>       0.37539000       0.00017000       0.43687000 </v>
   <v>       0.12461000       0.99984000       0.68687000 </v>
   <v>       0.37461000       0.00017000       0.68687000 </v>
   <v>       0.62539000       0.99984000       0.93687000 </v>
   <v>       0.62461000       0.99984000       0.68687000 </v>
   <v>       0.87461000       0.00017000       0.68687000 </v>
   <v>       0.12461000       0.99984000       0.18687000 </v>
   <v>       0.87539000       0.00017000       0.43687000 </v>
   <v>       0.62461000       0.99984000       0.18687000 </v>
   <v>       0.37539000       0.00017000       0.93687000 </v>
   <v>       0.87539000       0.00017000       0.93687000 </v>
   <v>       0.00013000       0.29519000       0.06281000 </v>
   <v>       0.25013000       0.70481000       0.06281000 </v>
   <v>       0.24987000       0.29519000       0.31282000 </v>
   <v>       0.49987000       0.70481000       0.31282000 </v>
   <v>       0.50013000       0.29519000       0.06281000 </v>
   <v>       0.75013000       0.70481000       0.06281000 </v>
   <v>       0.74987000       0.29519000       0.31282000 </v>
   <v>       0.99987000       0.70481000       0.31282000 </v>
   <v>       0.00013000       0.29519000       0.56281000 </v>
   <v>       0.25013000       0.70481000       0.56281000 </v>
   <v>       0.24987000       0.29519000       0.81282000 </v>
   <v>       0.49987000       0.70481000       0.81282000 </v>
   <v>       0.50013000       0.29519000       0.56281000 </v>
   <v>       0.75013000       0.70481000       0.56281000 </v>
   <v>       0.74987000       0.29519000       0.81282000 </v>
   <v>       0.99987000       0.70481000       0.81282000 </v>
   <v>       0.25005000       0.32677000       0.06286000 </v>
   <v>       0.00005000       0.67323000       0.06286000 </v>
   <v>       0.49995000       0.32677000       0.31286000 </v>
   <v>       0.24995000       0.67323000       0.31286000 </v>
   <v>       0.75005000       0.32677000       0.06286000 </v>
   <v>       0.50005000       0.67323000       0.06286000 </v>
   <v>       0.99995000       0.32677000       0.31286000 </v>
   <v>       0.74995000       0.67323000       0.31286000 </v>
   <v>       0.25005000       0.32677000       0.56286000 </v>
   <v>       0.00005000       0.67323000       0.56286000 </v>
   <v>       0.49995000       0.32677000       0.81286000 </v>
   <v>       0.24995000       0.67323000       0.81286000 </v>
   <v>       0.75005000       0.32677000       0.56286000 </v>
   <v>       0.50005000       0.67323000       0.56286000 </v>
   <v>       0.99995000       0.32677000       0.81286000 </v>
   <v>       0.74995000       0.67323000       0.81286000 </v>
   <v>       0.49987000       0.07798000       0.06246000 </v>
   <v>       0.24987000       0.92202000       0.06246000 </v>
   <v>       0.25013000       0.07798000       0.31246000 </v>
   <v>       0.00013000       0.92202000       0.31246000 </v>
   <v>       0.99987000       0.07798000       0.06246000 </v>
   <v>       0.74987000       0.92202000       0.06246000 </v>
   <v>       0.75013000       0.07798000       0.31246000 </v>
   <v>       0.50013000       0.92202000       0.31246000 </v>
   <v>       0.49987000       0.07798000       0.56246000 </v>
   <v>       0.24987000       0.92202000       0.56246000 </v>
   <v>       0.25013000       0.07798000       0.81246000 </v>
   <v>       0.00013000       0.92202000       0.81246000 </v>
   <v>       0.99987000       0.07798000       0.56246000 </v>
   <v>       0.74987000       0.92202000       0.56246000 </v>
   <v>       0.75013000       0.07798000       0.81246000 </v>
   <v>       0.50013000       0.92202000       0.81246000 </v>
  </varray>
 </structure>
 <calculation>
  <scstep>
   <time name="dav">   59.78   60.62</time>
   <time name="total">   59.86   60.71</time>
   <energy>
    <i name="alphaZ">   1060.66890660 </i>
    <i name="ewald"> -30400.35528711 </i>
    <i name="hartreedc"> -12718.58143018 </i>
    <i name="XCdc">   1247.15090396 </i>
    <i name="pawpsdc">  36635.26894311 </i>
    <i name="pawaedc"> -35972.74895369 </i>
    <i name="eentropy">      0.00000000 </i>
    <i name="bandstr">   1866.16021165 </i>
    <i name="atom">  44026.03258983 </i>
    <i name="e_fr_energy">   5743.59588416 </i>
    <i name="e_wo_entrp">   5743.59588416 </i>
    <i name="e_0_energy">   5743.59588416 </i>
   </energy>
  </scstep>
  <scstep>
   <time name="dav">   60.98   61.15</time>
   <time name="total">   60.98   61.16</time>
   <energy>
    <i name="e_fr_energy">    759.70994212 </i>
    <i name="e_wo_entrp">    759.70994212 </i>
    <i name="e_0_energy">    759.70994212 </i>
   </energy>
  </scstep>
  <scstep>
   <time name="dav">   70.68   70.78</time>
   <time name="total">   70.69   70.78</time>
   <energy>
    <i name="e_fr_energy">   -245.17026696 </i>
    <i name="e_wo_entrp">   -245.17026696 </i>
    <i name="e_0_energy">   -245.17026696 </i>
   </energy>
  </scstep>
  <scstep>
   <time name="dav">   72.31   72.43</time>
   <time name="total">   72.31   72.43</time>
   <energy>
    <i name="e_fr_energy">   -337.07337513 </i>
    <i name="e_wo_entrp">   -337.07337513 </i>
    <i name="e_0_energy">   -337.07337513 </i>
   </energy>
  </scstep>
  <scstep>
   <time name="dav">   94.84   95.07</time>
   <time name="total">   95.56   95.79</time>
   <energy>
    <i name="e_fr_energy">   -344.18500440 </i>
    <i name="e_wo_entrp">   -344.18500440 </i>
    <i name="e_0_energy">   -344.18500440 </i>
   </energy>
  </scstep>
  <scstep>
   <time name="dav">   86.01   86.31</time>
   <time name="total">   86.84   87.14</time>
   <energy>
    <i name="e_fr_energy">   -288.47769202 </i>
    <i name="e_wo_entrp">   -288.47769202 </i>
    <i name="e_0_energy">   -288.47769202 </i>
   </energy>
  </scstep>
  <scstep>
   <time name="dav">   65.36   65.57</time>
   <time name="total">   66.15   66.36</time>
   <energy>
    <i name="e_fr_energy">   -290.83093916 </i>
    <i name="e_wo_entrp">   -290.83093916 </i>
    <i name="e_0_energy">   -290.83093916 </i>
   </energy>
  </scstep>
  <scstep>
   <time name="dav">   76.70   76.76</time>
   <time name="total">   77.49   77.55</time>
   <energy>
    <i name="e_fr_energy">   -289.83132951 </i>
    <i name="e_wo_entrp">   -289.83132951 </i>
    <i name="e_0_energy">   -289.83132951 </i>
   </energy>
  </scstep>
  <scstep>
   <time name="dav">   75.42   75.53</time>
   <time name="total">   76.21   76.32</time>
   <energy>
    <i name="e_fr_energy">   -289.31909960 </i>
    <i name="e_wo_entrp">   -289.31909960 </i>
    <i name="e_0_energy">   -289.31909960 </i>
   </energy>
  </scstep>
  <scstep>
   <time name="dav">   74.11   74.22</time>
   <time name="total">   74.90   75.01</time>
   <energy>
    <i name="e_fr_energy">   -289.34293561 </i>
    <i name="e_wo_entrp">   -289.34293561 </i>
    <i name="e_0_energy">   -289.34293561 </i>
   </energy>
  </scstep>
  <scstep>
   <time name="dav">   80.32   80.37</time>
   <time name="total">   81.11   81.16</time>
   <energy>
    <i name="e_fr_energy">   -289.34788309 </i>
    <i name="e_wo_entrp">   -289.34788309 </i>
    <i name="e_0_energy">   -289.34788309 </i>
   </energy>
  </scstep>
  <scstep>
   <time name="dav">   76.86   76.89</time>
   <time name="total">   77.65   77.68</time>
   <energy>
    <i name="e_fr_energy">   -289.35067963 </i>
    <i name="e_wo_entrp">   -289.35067963 </i>
    <i name="e_0_energy">   -289.35067963 </i>
   </energy>
  </scstep>
  <scstep>
   <time name="dav">   76.90   76.92</time>
   <time name="total">   77.71   77.73</time>
   <energy>
    <i name="e_fr_energy">   -289.35209559 </i>
    <i name="e_wo_entrp">   -289.35209559 </i>
    <i name="e_0_energy">   -289.35209559 </i>
   </energy>
  </scstep>
  <scstep>
   <time name="dav">   76.86   76.85</time>
   <time name="total">   77.65   77.64</time>
   <energy>
    <i name="e_fr_energy">   -289.35233172 </i>
    <i name="e_wo_entrp">   -289.35233172 </i>
    <i name="e_0_energy">   -289.35233172 </i>
   </energy>
  </scstep>
  <scstep>
   <time name="dav">   81.70   81.71</time>
   <time name="total">   82.49   82.51</time>
   <energy>
    <i name="e_fr_energy">   -289.35236163 </i>
    <i name="e_wo_entrp">   -289.35236163 </i>
    <i name="e_0_energy">   -289.35236163 </i>
   </energy>
  </scstep>
  <scstep>
   <time name="dav">   66.27   66.28</time>
   <time name="total">   67.06   67.07</time>
   <energy>
    <i name="e_fr_energy">   -289.35238301 </i>
    <i name="e_wo_entrp">   -289.35238301 </i>
    <i name="e_0_energy">   -289.35238301 </i>
   </energy>
  </scstep>
  <scstep>
   <time name="dav">   71.91   71.92</time>
   <time name="total">   72.72   72.74</time>
   <energy>
    <i name="e_fr_energy">   -289.35238560 </i>
    <i name="e_wo_entrp">   -289.35238560 </i>
    <i name="e_0_energy">   -289.35238560 </i>
   </energy>
  </scstep>
  <scstep>
   <time name="dav">   57.00   57.10</time>
   <time name="total">   57.07   57.17</time>
   <energy>
    <i name="alphaZ">   1060.66890660 </i>
    <i name="ewald"> -30400.35528711 </i>
    <i name="hartreedc"> -12959.64108396 </i>
    <i name="XCdc">   1271.99270103 </i>
    <i name="pawpsdc">  43669.79815902 </i>
    <i name="pawaedc"> -42980.74591364 </i>
    <i name="eentropy">      0.00000000 </i>
    <i name="bandstr">  -3977.10245802 </i>
    <i name="atom">  44026.03258983 </i>
    <i name="e_fr_energy">   -289.35238625 </i>
    <i name="e_wo_entrp">   -289.35238625 </i>
    <i name="e_0_energy">   -289.35238625 </i>
   </energy>
  </scstep>
  <structure>
   <crystal>
    <varray name="basis" >
     <v>      11.17850000       0.00000000       0.00000000 </v>
     <v>       0.00000000       9.57460000       0.00000000 </v>
     <v>       0.00000000       0.00000000      11.18240000 </v>
    </varray>
    <i name="volume">   1196.84853820 </i>
    <varray name="rec_basis" >
     <v>       0.08945744       0.00000000       0.00000000 </v>
     <v>       0.00000000       0.10444301       0.00000000 </v>
     <v>       0.00000000       0.00000000       0.08942624 </v>
    </varray>
   </crystal>
   <varray name="positions" >
    <v>       0.37539000       0.00017000       0.43687000 </v>
    <v>       0.12461000       0.99984000       0.68687000 </v>
    <v>       0.37461000       0.00017000       0.68687000 </v>
    <v>       0.62539000       0.99984000       0.93687000 </v>
    <v>       0.62461000       0.99984000       0.68687000 </v>
    <v>       0.87461000       0.00017000       0.68687000 </v>
    <v>       0.12461000       0.99984000       0.18687000 </v>
    <v>       0.87539000       0.00017000       0.43687000 </v>
    <v>       0.62461000       0.99984000       0.18687000 </v>
    <v>       0.37539000       0.00017000       0.93687000 </v>
    <v>       0.87539000       0.00017000       0.93687000 </v>
    <v>       0.00013000       0.29519000       0.06281000 </v>
    <v>       0.25013000       0.70481000       0.06281000 </v>
    <v>       0.24987000       0.29519000       0.31282000 </v>
    <v>       0.49987000       0.70481000       0.31282000 </v>
    <v>       0.50013000       0.29519000       0.06281000 </v>
    <v>       0.75013000       0.70481000       0.06281000 </v>
    <v>       0.74987000       0.29519000       0.31282000 </v>
    <v>       0.99987000       0.70481000       0.31282000 </v>
    <v>       0.00013000       0.29519000       0.56281000 </v>
    <v>       0.25013000       0.70481000       0.56281000 </v>
    <v>       0.24987000       0.29519000       0.81282000 </v>
    <v>       0.49987000       0.70481000       0.81282000 </v>
    <v>       0.50013000       0.29519000       0.56281000 </v>
    <v>       0.75013000       0.70481000       0.56281000 </v>
    <v>       0.74987000       0.29519000       0.81282000 </v>
    <v>       0.99987000       0.70481000       0.81282000 </v>
    <v>       0.25005000       0.32677000       0.06286000 </v>
    <v>       0.00005000       0.67323000       0.06286000 </v>
    <v>       0.49995000       0.32677000       0.31286000 </v>
    <v>       0.24995000       0.67323000       0.31286000 </v>
    <v>       0.75005000       0.32677000       0.06286000 </v>
    <v>       0.50005000       0.67323000       0.06286000 </v>
    <v>       0.99995000       0.32677000       0.31286000 </v>
    <v>       0.74995000       0.67323000       0.31286000 </v>
    <v>       0.25005000       0.32677000       0.56286000 </v>
    <v>       0.00005000       0.67323000       0.56286000 </v>
    <v>       0.49995000       0.32677000       0.81286000 </v>
    <v>       0.24995000       0.67323000       0.81286000 </v>
    <v>       0.75005000       0.32677000       0.56286000 </v>
    <v>       0.50005000       0.67323000       0.56286000 </v>
    <v>       0.99995000       0.32677000       0.81286000 </v>
    <v>       0.74995000       0.67323000       0.81286000 </v>
    <v>       0.49987000       0.07798000       0.06246000 </v>
    <v>       0.24987000       0.92202000       0.06246000 </v>
    <v>       0.25013000       0.07798000       0.31246000 </v>
    <v>       0.00013000       0.92202000       0.31246000 </v>
    <v>       0.99987000       0.07798000       0.06246000 </v>
    <v>       0.74987000       0.92202000       0.06246000 </v>
    <v>       0.75013000       0.07798000       0.31246000 </v>
    <v>       0.50013000       0.92202000       0.31246000 </v>
    <v>       0.49987000       0.07798000       0.56246000 </v>
    <v>       0.24987000       0.92202000       0.56246000 </v>
    <v>       0.25013000       0.07798000       0.81246000 </v>
    <v>       0.00013000       0.92202000       0.81246000 </v>
    <v>       0.99987000       0.07798000       0.56246000 </v>
    <v>       0.74987000       0.92202000       0.56246000 </v>
    <v>       0.75013000       0.07798000       0.81246000 </v>
    <v>       0.50013000       0.92202000       0.81246000 </v>
   </varray>
  </structure>
  <varray name="forces" >
   <v>      -0.03976842      -0.00041023      -0.31903702 </v>
   <v>       0.12550114      -0.06412454      -0.14034154 </v>
   <v>      -0.20384934       0.06609586      -0.69856336 </v>
   <v>      -0.04307599      -0.00190118      -0.14665979 </v>
   <v>      -0.10627700       0.06284404      -0.66282453 </v>
   <v>       0.20360554      -0.06801720      -0.24462489 </v>
   <v>       0.26195619       0.11655737       0.33053399 </v>
   <v>       0.03894145      -0.00703900      -0.60009717 </v>
   <v>      -0.20541537      -0.10477304       1.35322269 </v>
   <v>      -1.11380712      -0.00544138       0.66057487 </v>
   <v>       1.06248128      -0.00551017       0.66649417 </v>
   <v>       0.17362768      -0.04542801       0.12499364 </v>
   <v>      -0.02940661       0.07284892       0.18594661 </v>
   <v>       0.12960390      -1.04632158       0.27240938 </v>
   <v>      -0.24980244       1.00684249       0.30921750 </v>
   <v>      -0.34174422       1.04120675       0.37115278 </v>
   <v>       0.17034063      -1.03471770       0.30496044 </v>
   <v>      -0.06517933      -0.07496213       0.20099932 </v>
   <v>       0.21670327       0.07770391       0.16253771 </v>
   <v>       0.39323556       0.01570406      -0.17527759 </v>
   <v>      -0.05242191       1.00237374      -0.28246894 </v>
   <v>      -0.20754563       0.02484688      -0.19458868 </v>
   <v>      -0.12118859      -1.09539691      -0.38536904 </v>
   <v>      -0.09388320      -0.98232218      -0.31529760 </v>
   <v>      -0.26662292      -0.01348792      -0.21116776 </v>
   <v>      -0.03236580       1.11099426      -0.31314832 </v>
   <v>       0.37962340      -0.05122164      -0.12995887 </v>
   <v>       0.09462580       0.09485269      -0.18364987 </v>
   <v>      -0.17283232      -0.05582732      -0.09817257 </v>
   <v>       0.22033199       0.14305399      -0.31109538 </v>
   <v>      -0.14275063      -0.18384585      -0.20942734 </v>
   <v>      -0.10222030       0.01596806      -0.19293509 </v>
   <v>       0.18216930      -0.05130607      -0.26881581 </v>
   <v>      -0.16385747       0.13116050      -0.05963660 </v>
   <v>       0.08336469      -0.09675512      -0.15914084 </v>
   <v>      -0.09105812       0.24239666       0.20825753 </v>
   <v>      -0.21769689      -0.17348958       0.06635021 </v>
   <v>       0.12176488       0.11076644       0.28017724 </v>
   <v>       0.15889315      -0.13598345       0.18004601 </v>
   <v>       0.13825173       0.13778735       0.16156157 </v>
   <v>       0.16420733      -0.20369136       0.30037331 </v>
   <v>      -0.23500472       0.09376490       0.08881980 </v>
   <v>      -0.03836214      -0.07496861       0.19112743 </v>
   <v>       0.77218618      -0.75135858      -0.84997089 </v>
   <v>       0.12589520      -0.27102633      -0.17670052 </v>
   <v>      -0.57722981       1.01536477      -0.62765870 </v>
   <v>      -0.12597882      -0.32881781      -0.04974702 </v>
   <v>      -0.18100853       0.21951431      -0.13031490 </v>
   <v>      -0.67663340       0.79065387      -0.81691939 </v>
   <v>       0.01420631       0.27284084      -0.15332620 </v>
   <v>       0.64195949      -0.94261026      -0.71880967 </v>
   <v>      -0.43362324       0.82098078       0.84222149 </v>
   <v>       0.53563943      -0.88179911       0.75628829 </v>
   <v>       1.21365430       0.01381875       0.02371701 </v>
   <v>      -1.29108050       0.05028677      -0.04551326 </v>
   <v>      -1.21518971       0.05978033       0.20408240 </v>
   <v>       1.13769087      -0.01002601       0.27925387 </v>
   <v>       0.38843679      -0.91605310       0.64017836 </v>
   <v>      -0.31201701       0.86762410       0.70576151 </v>
  </varray>
  <varray name="stress" >
   <v>     -10.67288289      -0.59405444       0.01188080 </v>
   <v>      -0.59405441     -13.11528254       0.04747664 </v>
   <v>       0.01188071       0.04747643      -8.21924189 </v>
  </varray>
  <energy>
   <i name="e_fr_energy">   -301.98872848 </i>
   <i name="e_wo_entrp">   -301.98872848 </i>
   <i name="e_0_energy">      0.00000000 </i>
  </energy>
  <time name="totalsc"> 1443.54 1446.24</time>
  <eigenvalues>
   <array>
    <dimension dim="1">band</dimension>
    <dimension dim="2">kpoint</dimension>
    <dimension dim="3">spin</dimension>
    <field>eigene</field>
    <field>occ</field>
    <set>
     <set comment="spin 1">
      <set comment="kpoint 1">
       <r>  -40.7821    1.0000 </r>
       <r>  -40.1404    1.0000 </r>
       <r>  -40.0227    1.0000 </r>
       <r>  -39.6888    1.0000 </r>
       <r>  -39.5691    1.0000 </r>
       <r>  -38.9811    1.0000 </r>
       <r>  -19.0411    1.0000 </r>
       <r>  -19.0322    1.0000 </r>
       <r>  -18.9655    1.0000 </r>
       <r>  -18.9641    1.0000 </r>
       <r>  -18.9636    1.0000 </r>
       <r>  -18.9569    1.0000 </r>
       <r>  -18.9543    1.0000 </r>
       <r>  -18.9477    1.0000 </r>
       <r>  -18.8894    1.0000 </r>
       <r>  -18.8868    1.0000 </r>
       <r>  -18.8817    1.0000 </r>
       <r>  -18.8789    1.0000 </r>
       <r>  -18.8618    1.0000 </r>
       <r>  -18.8589    1.0000 </r>
       <r>  -18.8552    1.0000 </r>
       <r>  -18.8404    1.0000 </r>
       <r>  -18.7904    1.0000 </r>
       <r>  -18.7887    1.0000 </r>
       <r>  -18.7749    1.0000 </r>
       <r>  -18.7679    1.0000 </r>
       <r>  -18.7523    1.0000 </r>
       <r>  -18.7411    1.0000 </r>
       <r>  -18.7376    1.0000 </r>
       <r>  -18.7362    1.0000 </r>
       <r>  -18.7265    1.0000 </r>
       <r>  -18.7180    1.0000 </r>
       <r>  -18.6759    1.0000 </r>
       <r>  -18.6746    1.0000 </r>
       <r>  -18.6597    1.0000 </r>
       <r>  -18.6592    1.0000 </r>
       <r>  -18.6580    1.0000 </r>
       <r>  -18.6579    1.0000 </r>
       <r>  -18.6470    1.0000 </r>
       <r>  -18.6462    1.0000 </r>
       <r>  -18.6438    1.0000 </r>
       <r>  -18.6437    1.0000 </r>
       <r>  -18.6263    1.0000 </r>
       <r>  -18.6256    1.0000 </r>
       <r>  -18.6074    1.0000 </r>
       <r>  -18.5994    1.0000 </r>
       <r>  -18.5946    1.0000 </r>
       <r>  -18.5911    1.0000 </r>
       <r>  -18.5875    1.0000 </r>
       <r>  -18.5870    1.0000 </r>
       <r>  -18.5815    1.0000 </r>
       <r>  -18.5792    1.0000 </r>
       <r>  -18.5652    1.0000 </r>
       <r>  -18.5573    1.0000 </r>
       <r>  -18.5199    1.0000 </r>
       <r>  -18.5185    1.0000 </r>
       <r>  -18.5051    1.0000 </r>
       <r>  -18.5047    1.0000 </r>
       <r>  -18.4932    1.0000 </r>
       <r>  -18.4920    1.0000 </r>
       <r>  -18.4691    1.0000 </r>
       <r>  -18.4682    1.0000 </r>
       <r>  -18.4525    1.0000 </r>
       <r>  -18.4388    1.0000 </r>
       <r>  -18.4336    1.0000 </r>
       <r>  -18.4334    1.0000 </r>
       <r>  -18.4305    1.0000 </r>
       <r>  -18.4212    1.0000 </r>
       <r>  -18.4188    1.0000 </r>
       <r>  -18.4076    1.0000 </r>
       <r>  -18.3588    1.0000 </r>
       <r>  -18.3530    1.0000 </r>
       <r>  -18.3491    1.0000 </r>
       <r>  -18.3466    1.0000 </r>
       <r>  -18.3402    1.0000 </r>
       <r>  -18.3369    1.0000 </r>
       <r>  -18.2651    1.0000 </r>
       <r>  -18.2608    1.0000 </r>
       <r>  -18.2332    1.0000 </r>
       <r>  -18.2271    1.0000 </r>
       <r>  -18.2128    1.0000 </r>
       <r>  -18.2052    1.0000 </r>
       <r>  -18.1515    1.0000 </r>
       <r>  -18.1485    1.0000 </r>
       <r>  -18.1386    1.0000 </r>
       <r>  -18.1258    1.0000 </r>
       <r>  -13.7270    1.0000 </r>
       <r>  -13.6117    1.0000 </r>
       <r>  -13.5858    1.0000 </r>
       <r>  -13.5006    1.0000 </r>
       <r>  -12.9206    1.0000 </r>
       <r>  -12.8152    1.0000 </r>
       <r>  -12.8063    1.0000 </r>
       <r>  -12.7542    1.0000 </r>
       <r>  -12.6801    1.0000 </r>
       <r>  -12.6764    1.0000 </r>
       <r>  -12.6531    1.0000 </r>
       <r>  -12.5885    1.0000 </r>
       <r>  -12.0526    1.0000 </r>
       <r>  -11.9768    1.0000 </r>
       <r>  -11.9102    1.0000 </r>
       <r>  -11.8694    1.0000 </r>
       <r>   -9.3839    1.0000 </r>
       <r>   -9.0918    1.0000 </r>
       <r>   -8.5715    1.0000 </r>
       <r>   -8.5423    1.0000 </r>
       <r>   -8.5360    1.0000 </r>
       <r>   -8.4802    1.0000 </r>
       <r>   -8.3545    1.0000 </r>
       <r>   -8.3199    1.0000 </r>
       <r>   -8.3177    1.0000 </r>
       <r>   -8.2622    1.0000 </r>
       <r>   -8.0338    1.0000 </r>
       <r>   -8.0199    1.0000 </r>
       <r>   -8.0015    1.0000 </r>
       <r>   -7.9881    1.0000 </r>
       <r>   -7.3786    1.0000 </r>
       <r>   -7.3775    1.0000 </r>
       <r>   -6.4210    1.0000 </r>
       <r>   -6.4174    1.0000 </r>
       <r>   -6.3904    1.0000 </r>
       <r>   -6.3900    1.0000 </r>
       <r>   -5.6060    1.0000 </r>
       <r>   -5.5910    1.0000 </r>
       <r>   -5.4313    1.0000 </r>
       <r>   -5.3227    1.0000 </r>
       <r>   -5.3141    1.0000 </r>
       <r>   -5.2867    1.0000 </r>
       <r>   -5.2371    1.0000 </r>
       <r>   -5.1276    1.0000 </r>
       <r>   -5.0903    1.0000 </r>
       <r>   -5.0693    1.0000 </r>
       <r>   -3.8205    1.0000 </r>
       <r>   -3.6695    1.0000 </r>
       <r>   -1.5624    1.0000 </r>
       <r>   -1.3398    1.0000 </r>
       <r>   -1.1811    1.0000 </r>
       <r>   -1.0237    1.0000 </r>
       <r>   -0.6398    1.0000 </r>
       <r>   -0.5984    1.0000 </r>
       <r>   -0.5513    1.0000 </r>
       <r>   -0.5287    1.0000 </r>
       <r>   -0.2400    1.0000 </r>
       <r>   -0.2292    1.0000 </r>
       <r>   -0.1950    1.0000 </r>
       <r>   -0.1733    1.0000 </r>
       <r>   -0.0993    1.0000 </r>
       <r>   -0.0212    1.0000 </r>
       <r>    0.0300    1.0000 </r>
       <r>    0.1987    1.0000 </r>
       <r>    0.3273    1.0000 </r>
       <r>    0.3942    1.0000 </r>
       <r>    0.4492    1.0000 </r>
       <r>    0.4714    1.0000 </r>
       <r>    0.5095    1.0000 </r>
       <r>    0.5756    1.0000 </r>
       <r>    0.6348    1.0000 </r>
       <r>    0.7265    1.0000 </r>
       <r>    0.7454    1.0000 </r>
       <r>    0.7843    1.0000 </r>
       <r>    0.8470    1.0000 </r>
       <r>    0.8587    1.0000 </r>
       <r>    0.8727    1.0000 </r>
       <r>    0.9592    1.0000 </r>
       <r>    0.9778    1.0000 </r>
       <r>    1.0064    1.0000 </r>
       <r>    1.0165    1.0000 </r>
       <r>    1.0742    1.0000 </r>
       <r>    1.1400    1.0000 </r>
       <r>    1.1852    1.0000 </r>
       <r>    1.1963    1.0000 </r>
       <r>    1.2569    1.0000 </r>
       <r>    1.3153    1.0000 </r>
       <r>    1.3240    1.0000 </r>
       <r>    1.4835    1.0000 </r>
       <r>    1.5270    1.0000 </r>
       <r>    1.5680    1.0000 </r>
       <r>    1.6047    1.0000 </r>
       <r>    1.6791    1.0000 </r>
       <r>    1.7039    1.0000 </r>
       <r>    1.7207    1.0000 </r>
       <r>    1.8049    1.0000 </r>
       <r>    1.8270    1.0000 </r>
       <r>    1.8480    1.0000 </r>
       <r>    1.8819    1.0000 </r>
       <r>    2.0010    1.0000 </r>
       <r>    2.0904    1.0000 </r>
       <r>    2.1425    1.0000 </r>
       <r>    2.2091    1.0000 </r>
       <r>    2.2640    1.0000 </r>
       <r>    2.3452    1.0000 </r>
       <r>    2.3970    1.0000 </r>
       <r>    2.4570    1.0000 </r>
       <r>    2.4938    1.0000 </r>
       <r>    2.5281    1.0000 </r>
       <r>    2.5375    1.0000 </r>
       <r>    2.5393    1.0000 </r>
       <r>    2.5554    1.0000 </r>
       <r>    2.5890    1.0000 </r>
       <r>    2.6201    1.0000 </r>
       <r>    2.6664    1.0000 </r>
       <r>    2.6987    1.0000 </r>
       <r>    2.7302    1.0000 </r>
       <r>    2.7482    1.0000 </r>
       <r>    2.7935    1.0000 </r>
       <r>    2.8443    1.0000 </r>
       <r>    2.9788    1.0000 </r>
       <r>    2.9830    1.0000 </r>
       <r>    3.0010    1.0000 </r>
       <r>    3.0505    1.0000 </r>
       <r>    3.0769    1.0000 </r>
       <r>    3.0893    1.0000 </r>
       <r>    3.1181    1.0000 </r>
       <r>    3.1527    1.0000 </r>
       <r>    3.1575    1.0000 </r>
       <r>    3.1768    1.0000 </r>
       <r>    3.1926    1.0000 </r>
       <r>    3.2245    1.0000 </r>
       <r>    3.2327    1.0000 </r>
       <r>    3.2424    1.0000 </r>
       <r>    3.3402    1.0000 </r>
       <r>    3.3656    1.0000 </r>
       <r>    3.4587    1.0000 </r>
       <r>    3.5341    1.0000 </r>
       <r>    3.6249    1.0000 </r>
       <r>    3.7897    1.0000 </r>
       <r>    4.1689    1.0000 </r>
       <r>    4.1694    1.0000 </r>
       <r>    4.2227    1.0000 </r>
       <r>    4.2285    1.0000 </r>
       <r>    4.9715    0.0000 </r>
       <r>    4.9762    0.0000 </r>
       <r>    5.1591    0.0000 </r>
       <r>    5.1642    0.0000 </r>
       <r>    5.6752    0.0000 </r>
       <r>    5.6814    0.0000 </r>
       <r>    5.7808    0.0000 </r>
       <r>    5.7862    0.0000 </r>
       <r>    6.0938    0.0000 </r>
       <r>    6.1168    0.0000 </r>
       <r>    6.1402    0.0000 </r>
       <r>    6.1523    0.0000 </r>
       <r>    6.2232    0.0000 </r>
       <r>    6.2387    0.0000 </r>
       <r>    6.2565    0.0000 </r>
       <r>    6.2595    0.0000 </r>
       <r>    6.9493    0.0000 </r>
       <r>    7.0055    0.0000 </r>
       <r>    7.2245    0.0000 </r>
       <r>    7.2381    0.0000 </r>
       <r>    7.7218    0.0000 </r>
       <r>    7.8009    0.0000 </r>
       <r>    7.8271    0.0000 </r>
       <r>    7.9156    0.0000 </r>
       <r>    7.9320    0.0000 </r>
       <r>    7.9732    0.0000 </r>
       <r>    8.0605    0.0000 </r>
       <r>    8.0971    0.0000 </r>
       <r>    8.3321    0.0000 </r>
       <r>    8.6243    0.0000 </r>
       <r>    8.6757    0.0000 </r>
       <r>    8.7528    0.0000 </r>
       <r>    8.8023    0.0000 </r>
       <r>    8.8167    0.0000 </r>
       <r>    8.8478    0.0000 </r>
       <r>    8.9289    0.0000 </r>
       <r>    8.9602    0.0000 </r>
       <r>    8.9889    0.0000 </r>
       <r>    9.0190    0.0000 </r>
       <r>    9.0950    0.0000 </r>
       <r>    9.1179    0.0000 </r>
       <r>    9.1307    0.0000 </r>
       <r>    9.1922    0.0000 </r>
       <r>    9.2452    0.0000 </r>
       <r>    9.3601    0.0000 </r>
       <r>    9.4358    0.0000 </r>
       <r>    9.5028    0.0000 </r>
       <r>    9.5190    0.0000 </r>
       <r>    9.6907    0.0000 </r>
       <r>    9.7602    0.0000 </r>
      </set>
      <set comment="kpoint 2">
       <r>  -40.7821    1.0000 </r>
       <r>  -40.1404    1.0000 </r>
       <r>  -40.0227    1.0000 </r>
       <r>  -39.6888    1.0000 </r>
       <r>  -39.5691    1.0000 </r>
       <r>  -38.9811    1.0000 </r>
       <r>  -19.0411    1.0000 </r>
       <r>  -19.0321    1.0000 </r>
       <r>  -18.9654    1.0000 </r>
       <r>  -18.9640    1.0000 </r>
       <r>  -18.9636    1.0000 </r>
       <r>  -18.9569    1.0000 </r>
       <r>  -18.9543    1.0000 </r>
       <r>  -18.9477    1.0000 </r>
       <r>  -18.8894    1.0000 </r>
       <r>  -18.8868    1.0000 </r>
       <r>  -18.8817    1.0000 </r>
       <r>  -18.8789    1.0000 </r>
       <r>  -18.8618    1.0000 </r>
       <r>  -18.8589    1.0000 </r>
       <r>  -18.8552    1.0000 </r>
       <r>  -18.8404    1.0000 </r>
       <r>  -18.7904    1.0000 </r>
       <r>  -18.7887    1.0000 </r>
       <r>  -18.7749    1.0000 </r>
       <r>  -18.7679    1.0000 </r>
       <r>  -18.7524    1.0000 </r>
       <r>  -18.7411    1.0000 </r>
       <r>  -18.7376    1.0000 </r>
       <r>  -18.7362    1.0000 </r>
       <r>  -18.7265    1.0000 </r>
       <r>  -18.7180    1.0000 </r>
       <r>  -18.6759    1.0000 </r>
       <r>  -18.6746    1.0000 </r>
       <r>  -18.6601    1.0000 </r>
       <r>  -18.6597    1.0000 </r>
       <r>  -18.6576    1.0000 </r>
       <r>  -18.6575    1.0000 </r>
       <r>  -18.6474    1.0000 </r>
       <r>  -18.6466    1.0000 </r>
       <r>  -18.6434    1.0000 </r>
       <r>  -18.6432    1.0000 </r>
       <r>  -18.6263    1.0000 </r>
       <r>  -18.6254    1.0000 </r>
       <r>  -18.6075    1.0000 </r>
       <r>  -18.5993    1.0000 </r>
       <r>  -18.5946    1.0000 </r>
       <r>  -18.5911    1.0000 </r>
       <r>  -18.5875    1.0000 </r>
       <r>  -18.5870    1.0000 </r>
       <r>  -18.5815    1.0000 </r>
       <r>  -18.5793    1.0000 </r>
       <r>  -18.5652    1.0000 </r>
       <r>  -18.5573    1.0000 </r>
       <r>  -18.5199    1.0000 </r>
       <r>  -18.5185    1.0000 </r>
       <r>  -18.5051    1.0000 </r>
       <r>  -18.5047    1.0000 </r>
       <r>  -18.4932    1.0000 </r>
       <r>  -18.4920    1.0000 </r>
       <r>  -18.4691    1.0000 </r>
       <r>  -18.4682    1.0000 </r>
       <r>  -18.4525    1.0000 </r>
       <r>  -18.4388    1.0000 </r>
       <r>  -18.4338    1.0000 </r>
       <r>  -18.4332    1.0000 </r>
       <r>  -18.4306    1.0000 </r>
       <r>  -18.4211    1.0000 </r>
       <r>  -18.4188    1.0000 </r>
       <r>  -18.4076    1.0000 </r>
       <r>  -18.3588    1.0000 </r>
       <r>  -18.3530    1.0000 </r>
       <r>  -18.3491    1.0000 </r>
       <r>  -18.3466    1.0000 </r>
       <r>  -18.3402    1.0000 </r>
       <r>  -18.3369    1.0000 </r>
       <r>  -18.2651    1.0000 </r>
       <r>  -18.2608    1.0000 </r>
       <r>  -18.2332    1.0000 </r>
       <r>  -18.2271    1.0000 </r>
       <r>  -18.2128    1.0000 </r>
       <r>  -18.2052    1.0000 </r>
       <r>  -18.1515    1.0000 </r>
       <r>  -18.1485    1.0000 </r>
       <r>  -18.1386    1.0000 </r>
       <r>  -18.1258    1.0000 </r>
       <r>  -13.7259    1.0000 </r>
       <r>  -13.6119    1.0000 </r>
       <r>  -13.5868    1.0000 </r>
       <r>  -13.5006    1.0000 </r>
       <r>  -12.9206    1.0000 </r>
       <r>  -12.8148    1.0000 </r>
       <r>  -12.8060    1.0000 </r>
       <r>  -12.7541    1.0000 </r>
       <r>  -12.6793    1.0000 </r>
       <r>  -12.6767    1.0000 </r>
       <r>  -12.6542    1.0000 </r>
       <r>  -12.5888    1.0000 </r>
       <r>  -12.0525    1.0000 </r>
       <r>  -11.9770    1.0000 </r>
       <r>  -11.9101    1.0000 </r>
       <r>  -11.8693    1.0000 </r>
       <r>   -9.2387    1.0000 </r>
       <r>   -9.0815    1.0000 </r>
       <r>   -8.9667    1.0000 </r>
       <r>   -8.8064    1.0000 </r>
       <r>   -8.4373    1.0000 </r>
       <r>   -8.4043    1.0000 </r>
       <r>   -8.3031    1.0000 </r>
       <r>   -8.2661    1.0000 </r>
       <r>   -8.2428    1.0000 </r>
       <r>   -8.2012    1.0000 </r>
       <r>   -8.1086    1.0000 </r>
       <r>   -8.0611    1.0000 </r>
       <r>   -7.7690    1.0000 </r>
       <r>   -7.6618    1.0000 </r>
       <r>   -7.6521    1.0000 </r>
       <r>   -7.5450    1.0000 </r>
       <r>   -6.0963    1.0000 </r>
       <r>   -6.0694    1.0000 </r>
       <r>   -5.9939    1.0000 </r>
       <r>   -5.9336    1.0000 </r>
       <r>   -5.8598    1.0000 </r>
       <r>   -5.8459    1.0000 </r>
       <r>   -5.7600    1.0000 </r>
       <r>   -5.6911    1.0000 </r>
       <r>   -5.6496    1.0000 </r>
       <r>   -5.6061    1.0000 </r>
       <r>   -5.4534    1.0000 </r>
       <r>   -5.4260    1.0000 </r>
       <r>   -4.5173    1.0000 </r>
       <r>   -4.3581    1.0000 </r>
       <r>   -4.3567    1.0000 </r>
       <r>   -4.1865    1.0000 </r>
       <r>   -1.3106    1.0000 </r>
       <r>   -1.1233    1.0000 </r>
       <r>   -0.9381    1.0000 </r>
       <r>   -0.7673    1.0000 </r>
       <r>   -0.5906    1.0000 </r>
       <r>   -0.4846    1.0000 </r>
       <r>   -0.1942    1.0000 </r>
       <r>   -0.1376    1.0000 </r>
       <r>   -0.0833    1.0000 </r>
       <r>   -0.0341    1.0000 </r>
       <r>   -0.0305    1.0000 </r>
       <r>    0.0263    1.0000 </r>
       <r>    0.0909    1.0000 </r>
       <r>    0.1922    1.0000 </r>
       <r>    0.2963    1.0000 </r>
       <r>    0.3225    1.0000 </r>
       <r>    0.3821    1.0000 </r>
       <r>    0.4515    1.0000 </r>
       <r>    0.4683    1.0000 </r>
       <r>    0.5315    1.0000 </r>
       <r>    0.5498    1.0000 </r>
       <r>    0.5986    1.0000 </r>
       <r>    0.6243    1.0000 </r>
       <r>    0.6578    1.0000 </r>
       <r>    0.6859    1.0000 </r>
       <r>    0.7435    1.0000 </r>
       <r>    0.7756    1.0000 </r>
       <r>    0.7919    1.0000 </r>
       <r>    0.8217    1.0000 </r>
       <r>    0.8763    1.0000 </r>
       <r>    0.9178    1.0000 </r>
       <r>    1.0293    1.0000 </r>
       <r>    1.0594    1.0000 </r>
       <r>    1.1255    1.0000 </r>
       <r>    1.1592    1.0000 </r>
       <r>    1.1855    1.0000 </r>
       <r>    1.2484    1.0000 </r>
       <r>    1.2743    1.0000 </r>
       <r>    1.2943    1.0000 </r>
       <r>    1.3326    1.0000 </r>
       <r>    1.3503    1.0000 </r>
       <r>    1.3964    1.0000 </r>
       <r>    1.4645    1.0000 </r>
       <r>    1.4881    1.0000 </r>
       <r>    1.5146    1.0000 </r>
       <r>    1.5911    1.0000 </r>
       <r>    1.6668    1.0000 </r>
       <r>    1.7074    1.0000 </r>
       <r>    1.7230    1.0000 </r>
       <r>    1.7717    1.0000 </r>
       <r>    1.8876    1.0000 </r>
       <r>    1.8994    1.0000 </r>
       <r>    1.9538    1.0000 </r>
       <r>    1.9869    1.0000 </r>
       <r>    2.0368    1.0000 </r>
       <r>    2.1197    1.0000 </r>
       <r>    2.1651    1.0000 </r>
       <r>    2.2035    1.0000 </r>
       <r>    2.2160    1.0000 </r>
       <r>    2.2571    1.0000 </r>
       <r>    2.3225    1.0000 </r>
       <r>    2.3600    1.0000 </r>
       <r>    2.4048    1.0000 </r>
       <r>    2.4479    1.0000 </r>
       <r>    2.4683    1.0000 </r>
       <r>    2.4859    1.0000 </r>
       <r>    2.5650    1.0000 </r>
       <r>    2.6033    1.0000 </r>
       <r>    2.6702    1.0000 </r>
       <r>    2.7058    1.0000 </r>
       <r>    2.7119    1.0000 </r>
       <r>    2.7200    1.0000 </r>
       <r>    2.7653    1.0000 </r>
       <r>    2.7954    1.0000 </r>
       <r>    2.8076    1.0000 </r>
       <r>    2.9002    1.0000 </r>
       <r>    2.9437    1.0000 </r>
       <r>    2.9779    1.0000 </r>
       <r>    3.0295    1.0000 </r>
       <r>    3.0349    1.0000 </r>
       <r>    3.0968    1.0000 </r>
       <r>    3.1282    1.0000 </r>
       <r>    3.1709    1.0000 </r>
       <r>    3.1981    1.0000 </r>
       <r>    3.2174    1.0000 </r>
       <r>    3.2815    1.0000 </r>
       <r>    3.3077    1.0000 </r>
       <r>    3.4220    1.0000 </r>
       <r>    3.4321    1.0000 </r>
       <r>    3.5378    1.0000 </r>
       <r>    3.5583    1.0000 </r>
       <r>    3.6279    1.0000 </r>
       <r>    3.6701    1.0000 </r>
       <r>    3.7190    1.0000 </r>
       <r>    3.7572    1.0000 </r>
       <r>    3.9196    1.0000 </r>
       <r>    5.5256    0.0000 </r>
       <r>    5.5354    0.0000 </r>
       <r>    5.6815    0.0000 </r>
       <r>    5.6886    0.0000 </r>
       <r>    5.7210    0.0000 </r>
       <r>    5.7221    0.0000 </r>
       <r>    5.8754    0.0000 </r>
       <r>    5.8804    0.0000 </r>
       <r>    7.0713    0.0000 </r>
       <r>    7.1237    0.0000 </r>
       <r>    7.1693    0.0000 </r>
       <r>    7.2231    0.0000 </r>
       <r>    7.2458    0.0000 </r>
       <r>    7.3402    0.0000 </r>
       <r>    7.3740    0.0000 </r>
       <r>    7.3800    0.0000 </r>
       <r>    7.4121    0.0000 </r>
       <r>    7.4585    0.0000 </r>
       <r>    7.5677    0.0000 </r>
       <r>    7.5816    0.0000 </r>
       <r>    7.7559    0.0000 </r>
       <r>    7.7919    0.0000 </r>
       <r>    7.8336    0.0000 </r>
       <r>    7.8379    0.0000 </r>
       <r>    7.8411    0.0000 </r>
       <r>    7.8848    0.0000 </r>
       <r>    7.9311    0.0000 </r>
       <r>    7.9521    0.0000 </r>
       <r>    7.9589    0.0000 </r>
       <r>    7.9769    0.0000 </r>
       <r>    8.0410    0.0000 </r>
       <r>    8.0915    0.0000 </r>
       <r>    8.2668    0.0000 </r>
       <r>    8.2838    0.0000 </r>
       <r>    8.4420    0.0000 </r>
       <r>    8.4993    0.0000 </r>
       <r>    8.6555    0.0000 </r>
       <r>    8.7144    0.0000 </r>
       <r>    8.7247    0.0000 </r>
       <r>    8.7299    0.0000 </r>
       <r>    8.7482    0.0000 </r>
       <r>    8.8452    0.0000 </r>
       <r>    8.9162    0.0000 </r>
       <r>    8.9316    0.0000 </r>
       <r>    9.0656    0.0000 </r>
       <r>    9.2402    0.0000 </r>
       <r>    9.2784    0.0000 </r>
       <r>    9.3308    0.0000 </r>
       <r>    9.4474    0.0000 </r>
       <r>    9.5515    0.0000 </r>
      </set>
      <set comment="kpoint 3">
       <r>  -40.7821    1.0000 </r>
       <r>  -40.1404    1.0000 </r>
       <r>  -40.0227    1.0000 </r>
       <r>  -39.6888    1.0000 </r>
       <r>  -39.5691    1.0000 </r>
       <r>  -38.9811    1.0000 </r>
       <r>  -19.0411    1.0000 </r>
       <r>  -19.0321    1.0000 </r>
       <r>  -18.9651    1.0000 </r>
       <r>  -18.9647    1.0000 </r>
       <r>  -18.9633    1.0000 </r>
       <r>  -18.9569    1.0000 </r>
       <r>  -18.9543    1.0000 </r>
       <r>  -18.9477    1.0000 </r>
       <r>  -18.8894    1.0000 </r>
       <r>  -18.8868    1.0000 </r>
       <r>  -18.8817    1.0000 </r>
       <r>  -18.8789    1.0000 </r>
       <r>  -18.8618    1.0000 </r>
       <r>  -18.8589    1.0000 </r>
       <r>  -18.8552    1.0000 </r>
       <r>  -18.8404    1.0000 </r>
       <r>  -18.7904    1.0000 </r>
       <r>  -18.7887    1.0000 </r>
       <r>  -18.7749    1.0000 </r>
       <r>  -18.7679    1.0000 </r>
       <r>  -18.7523    1.0000 </r>
       <r>  -18.7411    1.0000 </r>
       <r>  -18.7376    1.0000 </r>
       <r>  -18.7362    1.0000 </r>
       <r>  -18.7265    1.0000 </r>
       <r>  -18.7180    1.0000 </r>
       <r>  -18.6759    1.0000 </r>
       <r>  -18.6746    1.0000 </r>
       <r>  -18.6597    1.0000 </r>
       <r>  -18.6592    1.0000 </r>
       <r>  -18.6581    1.0000 </r>
       <r>  -18.6579    1.0000 </r>
       <r>  -18.6471    1.0000 </r>
       <r>  -18.6461    1.0000 </r>
       <r>  -18.6438    1.0000 </r>
       <r>  -18.6437    1.0000 </r>
       <r>  -18.6263    1.0000 </r>
       <r>  -18.6256    1.0000 </r>
       <r>  -18.6074    1.0000 </r>
       <r>  -18.5993    1.0000 </r>
       <r>  -18.5946    1.0000 </r>
       <r>  -18.5911    1.0000 </r>
       <r>  -18.5875    1.0000 </r>
       <r>  -18.5870    1.0000 </r>
       <r>  -18.5815    1.0000 </r>
       <r>  -18.5793    1.0000 </r>
       <r>  -18.5652    1.0000 </r>
       <r>  -18.5573    1.0000 </r>
       <r>  -18.5199    1.0000 </r>
       <r>  -18.5185    1.0000 </r>
       <r>  -18.5051    1.0000 </r>
       <r>  -18.5047    1.0000 </r>
       <r>  -18.4932    1.0000 </r>
       <r>  -18.4920    1.0000 </r>
       <r>  -18.4691    1.0000 </r>
       <r>  -18.4682    1.0000 </r>
       <r>  -18.4525    1.0000 </r>
       <r>  -18.4388    1.0000 </r>
       <r>  -18.4336    1.0000 </r>
       <r>  -18.4334    1.0000 </r>
       <r>  -18.4305    1.0000 </r>
       <r>  -18.4212    1.0000 </r>
       <r>  -18.4188    1.0000 </r>
       <r>  -18.4076    1.0000 </r>
       <r>  -18.3588    1.0000 </r>
       <r>  -18.3530    1.0000 </r>
       <r>  -18.3491    1.0000 </r>
       <r>  -18.3466    1.0000 </r>
       <r>  -18.3402    1.0000 </r>
       <r>  -18.3369    1.0000 </r>
       <r>  -18.2651    1.0000 </r>
       <r>  -18.2608    1.0000 </r>
       <r>  -18.2332    1.0000 </r>
       <r>  -18.2271    1.0000 </r>
       <r>  -18.2128    1.0000 </r>
       <r>  -18.2052    1.0000 </r>
       <r>  -18.1515    1.0000 </r>
       <r>  -18.1485    1.0000 </r>
       <r>  -18.1386    1.0000 </r>
       <r>  -18.1258    1.0000 </r>
       <r>  -13.7266    1.0000 </r>
       <r>  -13.6118    1.0000 </r>
       <r>  -13.5858    1.0000 </r>
       <r>  -13.5009    1.0000 </r>
       <r>  -12.9195    1.0000 </r>
       <r>  -12.8149    1.0000 </r>
       <r>  -12.8063    1.0000 </r>
       <r>  -12.7541    1.0000 </r>
       <r>  -12.6813    1.0000 </r>
       <r>  -12.6767    1.0000 </r>
       <r>  -12.6532    1.0000 </r>
       <r>  -12.5892    1.0000 </r>
       <r>  -12.0511    1.0000 </r>
       <r>  -11.9777    1.0000 </r>
       <r>  -11.9101    1.0000 </r>
       <r>  -11.8712    1.0000 </r>
       <r>   -9.3743    1.0000 </r>
       <r>   -9.0982    1.0000 </r>
       <r>   -8.5894    1.0000 </r>
       <r>   -8.5599    1.0000 </r>
       <r>   -8.5530    1.0000 </r>
       <r>   -8.4971    1.0000 </r>
       <r>   -8.3352    1.0000 </r>
       <r>   -8.3024    1.0000 </r>
       <r>   -8.2981    1.0000 </r>
       <r>   -8.2438    1.0000 </r>
       <r>   -8.0369    1.0000 </r>
       <r>   -8.0229    1.0000 </r>
       <r>   -8.0040    1.0000 </r>
       <r>   -7.9907    1.0000 </r>
       <r>   -7.3813    1.0000 </r>
       <r>   -7.3804    1.0000 </r>
       <r>   -6.4127    1.0000 </r>
       <r>   -6.4057    1.0000 </r>
       <r>   -6.3816    1.0000 </r>
       <r>   -6.3805    1.0000 </r>
       <r>   -5.6131    1.0000 </r>
       <r>   -5.5871    1.0000 </r>
       <r>   -5.4805    1.0000 </r>
       <r>   -5.3521    1.0000 </r>
       <r>   -5.3301    1.0000 </r>
       <r>   -5.3128    1.0000 </r>
       <r>   -5.1878    1.0000 </r>
       <r>   -5.0755    1.0000 </r>
       <r>   -5.0512    1.0000 </r>
       <r>   -5.0289    1.0000 </r>
       <r>   -3.8950    1.0000 </r>
       <r>   -3.5833    1.0000 </r>
       <r>   -1.4314    1.0000 </r>
       <r>   -1.3570    1.0000 </r>
       <r>   -1.2927    1.0000 </r>
       <r>   -1.0874    1.0000 </r>
       <r>   -0.5686    1.0000 </r>
       <r>   -0.5028    1.0000 </r>
       <r>   -0.4482    1.0000 </r>
       <r>   -0.4351    1.0000 </r>
       <r>   -0.4337    1.0000 </r>
       <r>   -0.4002    1.0000 </r>
       <r>   -0.3747    1.0000 </r>
       <r>   -0.3236    1.0000 </r>
       <r>   -0.2714    1.0000 </r>
       <r>   -0.1485    1.0000 </r>
       <r>   -0.1054    1.0000 </r>
       <r>    0.0593    1.0000 </r>
       <r>    0.1634    1.0000 </r>
       <r>    0.2572    1.0000 </r>
       <r>    0.2808    1.0000 </r>
       <r>    0.3792    1.0000 </r>
       <r>    0.5188    1.0000 </r>
       <r>    0.5598    1.0000 </r>
       <r>    0.6122    1.0000 </r>
       <r>    0.6430    1.0000 </r>
       <r>    0.6877    1.0000 </r>
       <r>    0.7148    1.0000 </r>
       <r>    0.7898    1.0000 </r>
       <r>    0.7942    1.0000 </r>
       <r>    0.8314    1.0000 </r>
       <r>    0.9726    1.0000 </r>
       <r>    0.9825    1.0000 </r>
       <r>    1.0662    1.0000 </r>
       <r>    1.1197    1.0000 </r>
       <r>    1.1510    1.0000 </r>
       <r>    1.2148    1.0000 </r>
       <r>    1.2756    1.0000 </r>
       <r>    1.3249    1.0000 </r>
       <r>    1.3911    1.0000 </r>
       <r>    1.4000    1.0000 </r>
       <r>    1.4405    1.0000 </r>
       <r>    1.5000    1.0000 </r>
       <r>    1.5710    1.0000 </r>
       <r>    1.5946    1.0000 </r>
       <r>    1.6674    1.0000 </r>
       <r>    1.7646    1.0000 </r>
       <r>    1.8006    1.0000 </r>
       <r>    1.8613    1.0000 </r>
       <r>    1.9300    1.0000 </r>
       <r>    1.9411    1.0000 </r>
       <r>    2.0541    1.0000 </r>
       <r>    2.0682    1.0000 </r>
       <r>    2.1430    1.0000 </r>
       <r>    2.2270    1.0000 </r>
       <r>    2.2643    1.0000 </r>
       <r>    2.3098    1.0000 </r>
       <r>    2.3233    1.0000 </r>
       <r>    2.3913    1.0000 </r>
       <r>    2.4368    1.0000 </r>
       <r>    2.4512    1.0000 </r>
       <r>    2.5075    1.0000 </r>
       <r>    2.5246    1.0000 </r>
       <r>    2.5394    1.0000 </r>
       <r>    2.5453    1.0000 </r>
       <r>    2.5622    1.0000 </r>
       <r>    2.5873    1.0000 </r>
       <r>    2.6004    1.0000 </r>
       <r>    2.6326    1.0000 </r>
       <r>    2.6919    1.0000 </r>
       <r>    2.7417    1.0000 </r>
       <r>    2.7937    1.0000 </r>
       <r>    2.8260    1.0000 </r>
       <r>    2.8386    1.0000 </r>
       <r>    2.9206    1.0000 </r>
       <r>    2.9489    1.0000 </r>
       <r>    2.9755    1.0000 </r>
       <r>    2.9995    1.0000 </r>
       <r>    3.0177    1.0000 </r>
       <r>    3.0281    1.0000 </r>
       <r>    3.0550    1.0000 </r>
       <r>    3.0889    1.0000 </r>
       <r>    3.1311    1.0000 </r>
       <r>    3.2459    1.0000 </r>
       <r>    3.2539    1.0000 </r>
       <r>    3.3066    1.0000 </r>
       <r>    3.3774    1.0000 </r>
       <r>    3.3988    1.0000 </r>
       <r>    3.4562    1.0000 </r>
       <r>    3.4754    1.0000 </r>
       <r>    3.4942    1.0000 </r>
       <r>    3.5537    1.0000 </r>
       <r>    3.5842    1.0000 </r>
       <r>    3.7378    1.0000 </r>
       <r>    4.2138    1.0000 </r>
       <r>    4.2289    1.0000 </r>
       <r>    4.2744    1.0000 </r>
       <r>    4.2785    1.0000 </r>
       <r>    5.0514    0.0000 </r>
       <r>    5.0556    0.0000 </r>
       <r>    5.2206    0.0000 </r>
       <r>    5.2253    0.0000 </r>
       <r>    5.6866    0.0000 </r>
       <r>    5.6874    0.0000 </r>
       <r>    5.7880    0.0000 </r>
       <r>    5.7993    0.0000 </r>
       <r>    6.1476    0.0000 </r>
       <r>    6.1606    0.0000 </r>
       <r>    6.1867    0.0000 </r>
       <r>    6.1938    0.0000 </r>
       <r>    6.2375    0.0000 </r>
       <r>    6.2583    0.0000 </r>
       <r>    6.2734    0.0000 </r>
       <r>    6.2770    0.0000 </r>
       <r>    6.6101    0.0000 </r>
       <r>    6.7098    0.0000 </r>
       <r>    6.8274    0.0000 </r>
       <r>    6.9983    0.0000 </r>
       <r>    7.1655    0.0000 </r>
       <r>    7.2015    0.0000 </r>
       <r>    7.3494    0.0000 </r>
       <r>    7.4894    0.0000 </r>
       <r>    7.8174    0.0000 </r>
       <r>    7.8607    0.0000 </r>
       <r>    7.8701    0.0000 </r>
       <r>    7.8854    0.0000 </r>
       <r>    8.0056    0.0000 </r>
       <r>    8.3678    0.0000 </r>
       <r>    8.3769    0.0000 </r>
       <r>    8.4112    0.0000 </r>
       <r>    8.5938    0.0000 </r>
       <r>    8.7581    0.0000 </r>
       <r>    8.8469    0.0000 </r>
       <r>    8.8671    0.0000 </r>
       <r>    8.9673    0.0000 </r>
       <r>    9.0058    0.0000 </r>
       <r>    9.0316    0.0000 </r>
       <r>    9.0511    0.0000 </r>
       <r>    9.0768    0.0000 </r>
       <r>    9.1202    0.0000 </r>
       <r>    9.1548    0.0000 </r>
       <r>    9.1946    0.0000 </r>
       <r>    9.4541    0.0000 </r>
       <r>    9.4836    0.0000 </r>
       <r>    9.6001    0.0000 </r>
       <r>    9.6689    0.0000 </r>
       <r>    9.7071    0.0000 </r>
       <r>    9.7658    0.0000 </r>
      </set>
      <set comment="kpoint 4">
       <r>  -40.7821    1.0000 </r>
       <r>  -40.1404    1.0000 </r>
       <r>  -40.0227    1.0000 </r>
       <r>  -39.6888    1.0000 </r>
       <r>  -39.5691    1.0000 </r>
       <r>  -38.9811    1.0000 </r>
       <r>  -19.0411    1.0000 </r>
       <r>  -19.0321    1.0000 </r>
       <r>  -18.9650    1.0000 </r>
       <r>  -18.9647    1.0000 </r>
       <r>  -18.9633    1.0000 </r>
       <r>  -18.9569    1.0000 </r>
       <r>  -18.9542    1.0000 </r>
       <r>  -18.9477    1.0000 </r>
       <r>  -18.8894    1.0000 </r>
       <r>  -18.8868    1.0000 </r>
       <r>  -18.8817    1.0000 </r>
       <r>  -18.8789    1.0000 </r>
       <r>  -18.8618    1.0000 </r>
       <r>  -18.8589    1.0000 </r>
       <r>  -18.8552    1.0000 </r>
       <r>  -18.8404    1.0000 </r>
       <r>  -18.7904    1.0000 </r>
       <r>  -18.7887    1.0000 </r>
       <r>  -18.7749    1.0000 </r>
       <r>  -18.7679    1.0000 </r>
       <r>  -18.7524    1.0000 </r>
       <r>  -18.7411    1.0000 </r>
       <r>  -18.7376    1.0000 </r>
       <r>  -18.7363    1.0000 </r>
       <r>  -18.7265    1.0000 </r>
       <r>  -18.7180    1.0000 </r>
       <r>  -18.6759    1.0000 </r>
       <r>  -18.6746    1.0000 </r>
       <r>  -18.6602    1.0000 </r>
       <r>  -18.6597    1.0000 </r>
       <r>  -18.6576    1.0000 </r>
       <r>  -18.6575    1.0000 </r>
       <r>  -18.6474    1.0000 </r>
       <r>  -18.6465    1.0000 </r>
       <r>  -18.6434    1.0000 </r>
       <r>  -18.6432    1.0000 </r>
       <r>  -18.6263    1.0000 </r>
       <r>  -18.6255    1.0000 </r>
       <r>  -18.6075    1.0000 </r>
       <r>  -18.5993    1.0000 </r>
       <r>  -18.5946    1.0000 </r>
       <r>  -18.5911    1.0000 </r>
       <r>  -18.5874    1.0000 </r>
       <r>  -18.5870    1.0000 </r>
       <r>  -18.5815    1.0000 </r>
       <r>  -18.5793    1.0000 </r>
       <r>  -18.5652    1.0000 </r>
       <r>  -18.5573    1.0000 </r>
       <r>  -18.5199    1.0000 </r>
       <r>  -18.5185    1.0000 </r>
       <r>  -18.5051    1.0000 </r>
       <r>  -18.5047    1.0000 </r>
       <r>  -18.4932    1.0000 </r>
       <r>  -18.4920    1.0000 </r>
       <r>  -18.4691    1.0000 </r>
       <r>  -18.4682    1.0000 </r>
       <r>  -18.4525    1.0000 </r>
       <r>  -18.4389    1.0000 </r>
       <r>  -18.4338    1.0000 </r>
       <r>  -18.4332    1.0000 </r>
       <r>  -18.4306    1.0000 </r>
       <r>  -18.4211    1.0000 </r>
       <r>  -18.4188    1.0000 </r>
       <r>  -18.4076    1.0000 </r>
       <r>  -18.3588    1.0000 </r>
       <r>  -18.3530    1.0000 </r>
       <r>  -18.3491    1.0000 </r>
       <r>  -18.3466    1.0000 </r>
       <r>  -18.3402    1.0000 </r>
       <r>  -18.3369    1.0000 </r>
       <r>  -18.2651    1.0000 </r>
       <r>  -18.2608    1.0000 </r>
       <r>  -18.2332    1.0000 </r>
       <r>  -18.2271    1.0000 </r>
       <r>  -18.2128    1.0000 </r>
       <r>  -18.2052    1.0000 </r>
       <r>  -18.1515    1.0000 </r>
       <r>  -18.1485    1.0000 </r>
       <r>  -18.1386    1.0000 </r>
       <r>  -18.1258    1.0000 </r>
       <r>  -13.7256    1.0000 </r>
       <r>  -13.6120    1.0000 </r>
       <r>  -13.5868    1.0000 </r>
[...]
       <r>    8.8125    0.0000 </r>
       <r>    8.8211    0.0000 </r>
       <r>    8.8629    0.0000 </r>
       <r>    8.8977    0.0000 </r>
       <r>    8.9184    0.0000 </r>
       <r>    8.9356    0.0000 </r>
       <r>    8.9756    0.0000 </r>
       <r>    9.4389    0.0000 </r>
       <r>    9.7744    0.0000 </r>
      </set>
     </set>
    </set>
   </array>
  </eigenvalues>
  <separator name="orbital magnetization" >
   <v name="MAGDIPOLOUT">      0.00000000      0.00000000      0.00000000</v>
  </separator>
  <dos>
   <i name="efermi">      4.31663653 </i>
   <total>
    <array>
     <dimension dim="1">gridpoints</dimension>
     <dimension dim="2">spin</dimension>
     <field>energy</field>
     <field>total</field>
     <field>integrated</field>
     <set>
      <set comment="spin 1">
       <r>   -43.3248     0.0000     0.0000 </r>
       <r>   -43.1383     0.0000     0.0000 </r>
       <r>   -42.9519     0.0000     0.0000 </r>
       <r>   -42.7654     0.0000     0.0000 </r>
       <r>   -42.5790     0.0000     0.0000 </r>
       <r>   -42.3925     0.0000     0.0000 </r>
       <r>   -42.2060     0.0000     0.0000 </r>
       <r>   -42.0196     0.0000     0.0000 </r>
       <r>   -41.8331     0.0000     0.0000 </r>
       <r>   -41.6466     0.0000     0.0000 </r>
       <r>   -41.4602     0.0000     0.0000 </r>
       <r>   -41.2737     0.0000     0.0000 </r>
       <r>   -41.0872     0.0000     0.0000 </r>
       <r>   -40.9008     0.0000     0.0000 </r>
       <r>   -40.7143     0.0000     2.0000 </r>
       <r>   -40.5279     0.0000     2.0000 </r>
       <r>   -40.3414     0.0000     2.0000 </r>
       <r>   -40.1549     0.0000     2.0000 </r>
       <r>   -39.9685     0.0000     6.0000 </r>
       <r>   -39.7820     0.0000     6.0000 </r>
       <r>   -39.5955     0.0000     8.0000 </r>
       <r>   -39.4091     0.0000    10.0000 </r>
       <r>   -39.2226     0.0000    10.0000 </r>
       <r>   -39.0361     0.0000    10.0000 </r>
       <r>   -38.8497     0.0000    12.0000 </r>
       <r>   -38.6632     0.0000    12.0000 </r>
       <r>   -38.4768     0.0000    12.0000 </r>
       <r>   -38.2903     0.0000    12.0000 </r>
       <r>   -38.1038     0.0000    12.0000 </r>
       <r>   -37.9174     0.0000    12.0000 </r>
       <r>   -37.7309     0.0000    12.0000 </r>
       <r>   -37.5444     0.0000    12.0000 </r>
       <r>   -37.3580     0.0000    12.0000 </r>
       <r>   -37.1715     0.0000    12.0000 </r>
       <r>   -36.9850     0.0000    12.0000 </r>
       <r>   -36.7986     0.0000    12.0000 </r>
       <r>   -36.6121     0.0000    12.0000 </r>
       <r>   -36.4257     0.0000    12.0000 </r>
       <r>   -36.2392     0.0000    12.0000 </r>
       <r>   -36.0527     0.0000    12.0000 </r>
       <r>   -35.8663     0.0000    12.0000 </r>
       <r>   -35.6798     0.0000    12.0000 </r>
       <r>   -35.4933     0.0000    12.0000 </r>
       <r>   -35.3069     0.0000    12.0000 </r>
       <r>   -35.1204     0.0000    12.0000 </r>
       <r>   -34.9339     0.0000    12.0000 </r>
       <r>   -34.7475     0.0000    12.0000 </r>
       <r>   -34.5610     0.0000    12.0000 </r>
       <r>   -34.3746     0.0000    12.0000 </r>
       <r>   -34.1881     0.0000    12.0000 </r>
       <r>   -34.0016     0.0000    12.0000 </r>
       <r>   -33.8152     0.0000    12.0000 </r>
       <r>   -33.6287     0.0000    12.0000 </r>
       <r>   -33.4422     0.0000    12.0000 </r>
       <r>   -33.2558     0.0000    12.0000 </r>
       <r>   -33.0693     0.0000    12.0000 </r>
       <r>   -32.8828     0.0000    12.0000 </r>
       <r>   -32.6964     0.0000    12.0000 </r>
       <r>   -32.5099     0.0000    12.0000 </r>
       <r>   -32.3235     0.0000    12.0000 </r>
       <r>   -32.1370     0.0000    12.0000 </r>
       <r>   -31.9505     0.0000    12.0000 </r>
       <r>   -31.7641     0.0000    12.0000 </r>
       <r>   -31.5776     0.0000    12.0000 </r>
       <r>   -31.3911     0.0000    12.0000 </r>
       <r>   -31.2047     0.0000    12.0000 </r>
       <r>   -31.0182     0.0000    12.0000 </r>
       <r>   -30.8317     0.0000    12.0000 </r>
       <r>   -30.6453     0.0000    12.0000 </r>
       <r>   -30.4588     0.0000    12.0000 </r>
       <r>   -30.2724     0.0000    12.0000 </r>
       <r>   -30.0859     0.0000    12.0000 </r>
       <r>   -29.8994     0.0000    12.0000 </r>
       <r>   -29.7130     0.0000    12.0000 </r>
       <r>   -29.5265     0.0000    12.0000 </r>
       <r>   -29.3400     0.0000    12.0000 </r>
       <r>   -29.1536     0.0000    12.0000 </r>
       <r>   -28.9671     0.0000    12.0000 </r>
       <r>   -28.7806     0.0000    12.0000 </r>
       <r>   -28.5942     0.0000    12.0000 </r>
       <r>   -28.4077     0.0000    12.0000 </r>
       <r>   -28.2213     0.0000    12.0000 </r>
       <r>   -28.0348     0.0000    12.0000 </r>
       <r>   -27.8483     0.0000    12.0000 </r>
       <r>   -27.6619     0.0000    12.0000 </r>
       <r>   -27.4754     0.0000    12.0000 </r>
       <r>   -27.2889     0.0000    12.0000 </r>
       <r>   -27.1025     0.0000    12.0000 </r>
       <r>   -26.9160     0.0000    12.0000 </r>
       <r>   -26.7295     0.0000    12.0000 </r>
       <r>   -26.5431     0.0000    12.0000 </r>
       <r>   -26.3566     0.0000    12.0000 </r>
       <r>   -26.1702     0.0000    12.0000 </r>
       <r>   -25.9837     0.0000    12.0000 </r>
       <r>   -25.7972     0.0000    12.0000 </r>
       <r>   -25.6108     0.0000    12.0000 </r>
       <r>   -25.4243     0.0000    12.0000 </r>
       <r>   -25.2378     0.0000    12.0000 </r>
       <r>   -25.0514     0.0000    12.0000 </r>
       <r>   -24.8649     0.0000    12.0000 </r>
       <r>   -24.6785     0.0000    12.0000 </r>
       <r>   -24.4920     0.0000    12.0000 </r>
       <r>   -24.3055     0.0000    12.0000 </r>
       <r>   -24.1191     0.0000    12.0000 </r>
       <r>   -23.9326     0.0000    12.0000 </r>
       <r>   -23.7461     0.0000    12.0000 </r>
       <r>   -23.5597     0.0000    12.0000 </r>
       <r>   -23.3732     0.0000    12.0000 </r>
       <r>   -23.1867     0.0000    12.0000 </r>
       <r>   -23.0003     0.0000    12.0000 </r>
       <r>   -22.8138     0.0000    12.0000 </r>
       <r>   -22.6274     0.0000    12.0000 </r>
       <r>   -22.4409     0.0000    12.0000 </r>
       <r>   -22.2544     0.0000    12.0000 </r>
       <r>   -22.0680     0.0000    12.0000 </r>
       <r>   -21.8815     0.0000    12.0000 </r>
       <r>   -21.6950     0.0000    12.0000 </r>
       <r>   -21.5086     0.0000    12.0000 </r>
       <r>   -21.3221     0.0000    12.0000 </r>
       <r>   -21.1356     0.0000    12.0000 </r>
       <r>   -20.9492     0.0000    12.0000 </r>
       <r>   -20.7627     0.0000    12.0000 </r>
       <r>   -20.5763     0.0000    12.0000 </r>
       <r>   -20.3898     0.0000    12.0000 </r>
       <r>   -20.2033     0.0000    12.0000 </r>
       <r>   -20.0169     0.0000    12.0000 </r>
       <r>   -19.8304     0.0000    12.0000 </r>
       <r>   -19.6439     0.0000    12.0000 </r>
       <r>   -19.4575     0.0000    12.0000 </r>
       <r>   -19.2710     0.0000    12.0000 </r>
       <r>   -19.0845     0.0000    12.0000 </r>
       <r>   -18.8981     0.0000    28.0000 </r>
       <r>   -18.7116     0.0000    64.0000 </r>
       <r>   -18.5252     0.0000   108.0000 </r>
       <r>   -18.3387     0.0000   150.0000 </r>
       <r>   -18.1522     0.0000   164.0000 </r>
       <r>   -17.9658     0.0000   172.0000 </r>
       <r>   -17.7793     0.0000   172.0000 </r>
       <r>   -17.5928     0.0000   172.0000 </r>
       <r>   -17.4064     0.0000   172.0000 </r>
       <r>   -17.2199     0.0000   172.0000 </r>
       <r>   -17.0334     0.0000   172.0000 </r>
       <r>   -16.8470     0.0000   172.0000 </r>
       <r>   -16.6605     0.0000   172.0000 </r>
       <r>   -16.4741     0.0000   172.0000 </r>
       <r>   -16.2876     0.0000   172.0000 </r>
       <r>   -16.1011     0.0000   172.0000 </r>
       <r>   -15.9147     0.0000   172.0000 </r>
       <r>   -15.7282     0.0000   172.0000 </r>
       <r>   -15.5417     0.0000   172.0000 </r>
       <r>   -15.3553     0.0000   172.0000 </r>
       <r>   -15.1688     0.0000   172.0000 </r>
       <r>   -14.9823     0.0000   172.0000 </r>
       <r>   -14.7959     0.0000   172.0000 </r>
       <r>   -14.6094     0.0000   172.0000 </r>
       <r>   -14.4230     0.0000   172.0000 </r>
       <r>   -14.2365     0.0000   172.0000 </r>
       <r>   -14.0500     0.0000   172.0000 </r>
       <r>   -13.8636     0.0000   172.0000 </r>
       <r>   -13.6771     0.0000   174.0000 </r>
       <r>   -13.4906     0.0000   180.0000 </r>
       <r>   -13.3042     0.0000   180.0000 </r>
       <r>   -13.1177     0.0000   180.0000 </r>
       <r>   -12.9312     0.0000   180.0000 </r>
       <r>   -12.7448     0.0000   188.0000 </r>
       <r>   -12.5583     0.0000   196.0000 </r>
       <r>   -12.3719     0.0000   196.0000 </r>
       <r>   -12.1854     0.0000   196.0000 </r>
       <r>   -11.9989     0.0000   198.0000 </r>
       <r>   -11.8125     0.0000   204.0000 </r>
       <r>   -11.6260     0.0000   204.0000 </r>
       <r>   -11.4395     0.0000   204.0000 </r>
       <r>   -11.2531     0.0000   204.0000 </r>
       <r>   -11.0666     0.0000   204.0000 </r>
       <r>   -10.8801     0.0000   204.0000 </r>
       <r>   -10.6937     0.0000   204.0000 </r>
       <r>   -10.5072     0.0000   204.0000 </r>
       <r>   -10.3208     0.0000   204.0000 </r>
       <r>   -10.1343     0.0000   204.0000 </r>
       <r>    -9.9478     0.0000   204.0000 </r>
       <r>    -9.7614     0.0000   204.0000 </r>
       <r>    -9.5749     0.0000   204.0000 </r>
       <r>    -9.3884     0.0000   204.0000 </r>
       <r>    -9.2020     9.7360   205.6289 </r>
       <r>    -9.0155    14.1240   207.6436 </r>
       <r>    -8.8290    13.8832   209.4620 </r>
       <r>    -8.6426    13.4015   212.1111 </r>
       <r>    -8.4561    30.0079   216.1049 </r>
       <r>    -8.2697     7.6483   220.1388 </r>
       <r>    -8.0832    17.7036   223.0920 </r>
       <r>    -7.8967    19.0203   227.8613 </r>
       <r>    -7.7103    12.2311   231.3169 </r>
       <r>    -7.5238    22.5056   234.4125 </r>
       <r>    -7.3373     0.0000   236.0000 </r>
       <r>    -7.1509     0.0000   236.0000 </r>
       <r>    -6.9644     0.0000   236.0000 </r>
       <r>    -6.7779     0.0000   236.0000 </r>
       <r>    -6.5915     0.0000   236.0000 </r>
       <r>    -6.4050     0.9147   236.0050 </r>
       <r>    -6.2186    24.2077   238.4588 </r>
       <r>    -6.0321    23.9708   242.9196 </r>
       <r>    -5.8456    18.3572   245.2326 </r>
       <r>    -5.6592    23.1961   250.0565 </r>
       <r>    -5.4727    14.1083   253.4728 </r>
       <r>    -5.2862    18.5115   257.4114 </r>
       <r>    -5.0998     5.9845   259.7566 </r>
       <r>    -4.9133     6.5125   260.4884 </r>
       <r>    -4.7268     9.1395   262.0153 </r>
       <r>    -4.5404     7.2936   263.7854 </r>
       <r>    -4.3539     6.0659   265.1956 </r>
       <r>    -4.1675     6.5600   266.4284 </r>
       <r>    -3.9810     3.8895   267.4378 </r>
       <r>    -3.7945     1.3037   267.8881 </r>
       <r>    -3.6081     0.0275   267.9998 </r>
       <r>    -3.4216     0.0000   268.0000 </r>
       <r>    -3.2351     0.0000   268.0000 </r>
       <r>    -3.0487     0.0000   268.0000 </r>
       <r>    -2.8622     0.0000   268.0000 </r>
       <r>    -2.6757     0.0000   268.0000 </r>
       <r>    -2.4893     0.0000   268.0000 </r>
       <r>    -2.3028     0.0000   268.0000 </r>
       <r>    -2.1164     0.0000   268.0000 </r>
       <r>    -1.9299     0.0000   268.0000 </r>
       <r>    -1.7434     0.0000   268.0000 </r>
       <r>    -1.5570     0.0035   268.0000 </r>
       <r>    -1.3705     3.9383   268.2708 </r>
       <r>    -1.1840    10.1669   269.6127 </r>
       <r>    -0.9976    13.5190   271.8303 </r>
       <r>    -0.8111    10.7767   274.1587 </r>
       <r>    -0.6246     5.2313   275.5373 </r>
       <r>    -0.4382    22.6812   278.6831 </r>
       <r>    -0.2517    26.1079   283.1920 </r>
       <r>    -0.0653    36.8749   289.5271 </r>
       <r>     0.1212    21.8587   295.7065 </r>
       <r>     0.3077    35.6625   301.7963 </r>
       <r>     0.4941    44.0284   309.0066 </r>
       <r>     0.6806    54.8259   316.1053 </r>
       <r>     0.8671    40.6240   325.0355 </r>
       <r>     1.0535    41.7376   332.1074 </r>
       <r>     1.2400    50.4914   340.4413 </r>
       <r>     1.4265    42.7642   349.8110 </r>
       <r>     1.6129    45.0024   357.7138 </r>
       <r>     1.7994    40.6302   365.5807 </r>
       <r>     1.9858    41.9044   372.0215 </r>
       <r>     2.1723    45.3483   379.8128 </r>
       <r>     2.3588    53.3060   388.6424 </r>
       <r>     2.5452    52.2731   399.8231 </r>
       <r>     2.7317    75.5362   409.7667 </r>
       <r>     2.9182    59.6827   419.8301 </r>
       <r>     3.1046    56.9655   431.1311 </r>
       <r>     3.2911    37.6825   440.0454 </r>
       <r>     3.4776    35.2169   447.1879 </r>
       <r>     3.6640    22.8867   452.4014 </r>
       <r>     3.8505    19.4583   455.9712 </r>
       <r>     4.0369    10.2687   458.9796 </r>
       <r>     4.2234     0.9385   459.9831 </r>
       <r>     4.4099     0.0000   460.0000 </r>
       <r>     4.5963     0.0000   460.0000 </r>
       <r>     4.7828     0.0000   460.0000 </r>
       <r>     4.9693     0.0000   460.0000 </r>
       <r>     5.1557     1.6121   460.1176 </r>
       <r>     5.3422     5.9241   460.7824 </r>
       <r>     5.5286    10.2838   462.3335 </r>
       <r>     5.7151    14.7355   464.1206 </r>
       <r>     5.9016    22.5392   467.8415 </r>
       <r>     6.0880    12.3145   470.5115 </r>
       <r>     6.2745    12.0844   472.7103 </r>
       <r>     6.4610    14.6348   475.2022 </r>
       <r>     6.6474    17.0395   478.1612 </r>
       <r>     6.8339    19.5290   481.5591 </r>
       <r>     7.0204    23.9807   485.5582 </r>
       <r>     7.2068    30.3702   490.5980 </r>
       <r>     7.3933    33.9845   496.4963 </r>
       <r>     7.5797    25.4031   501.9893 </r>
       <r>     7.7662    46.9207   508.2026 </r>
       <r>     7.9527    39.6118   518.0490 </r>
       <r>     8.1391    22.2362   523.2429 </r>
       <r>     8.3256    18.6263   526.9560 </r>
       <r>     8.5121    22.5364   530.7840 </r>
       <r>     8.6985    28.7564   535.6006 </r>
       <r>     8.8850    44.2839   543.1219 </r>
       <r>     9.0715    21.4429   549.0895 </r>
       <r>     9.2579    16.2969   552.4021 </r>
       <r>     9.4444    14.4744   555.3368 </r>
       <r>     9.6308    14.4312   557.8856 </r>
       <r>     9.8173     5.8374   559.5338 </r>
       <r>    10.0038     0.3742   559.9915 </r>
       <r>    10.1902     0.0000   560.0000 </r>
       <r>    10.3767     0.0000   560.0000 </r>
       <r>    10.5632     0.0000   560.0000 </r>
       <r>    10.7496     0.0000   560.0000 </r>
       <r>    10.9361     0.0000   560.0000 </r>
       <r>    11.1226     0.0000   560.0000 </r>
       <r>    11.3090     0.0000   560.0000 </r>
       <r>    11.4955     0.0000   560.0000 </r>
       <r>    11.6819     0.0000   560.0000 </r>
       <r>    11.8684     0.0000   560.0000 </r>
       <r>    12.0549     0.0000   560.0000 </r>
       <r>    12.2413     0.0000   560.0000 </r>
       <r>    12.4278     0.0000   560.0000 </r>
       <r>    12.6143     0.0000   560.0000 </r>
      </set>
     </set>
    </array>
   </total>
  </dos>
 </calculation>
 <structure name="finalpos" >
  <crystal>
   <varray name="basis" >
    <v>      11.17850000       0.00000000       0.00000000 </v>
    <v>       0.00000000       9.57460000       0.00000000 </v>
    <v>       0.00000000       0.00000000      11.18240000 </v>
   </varray>
   <i name="volume">   1196.84853820 </i>
   <varray name="rec_basis" >
    <v>       0.08945744       0.00000000       0.00000000 </v>
    <v>       0.00000000       0.10444301       0.00000000 </v>
    <v>       0.00000000       0.00000000       0.08942624 </v>
   </varray>
  </crystal>
  <varray name="positions" >
   <v>       0.37539000       0.00017000       0.43687000 </v>
   <v>       0.12461000       0.99984000       0.68687000 </v>
   <v>       0.37461000       0.00017000       0.68687000 </v>
   <v>       0.62539000       0.99984000       0.93687000 </v>
   <v>       0.62461000       0.99984000       0.68687000 </v>
   <v>       0.87461000       0.00017000       0.68687000 </v>
   <v>       0.12461000       0.99984000       0.18687000 </v>
   <v>       0.87539000       0.00017000       0.43687000 </v>
   <v>       0.62461000       0.99984000       0.18687000 </v>
   <v>       0.37539000       0.00017000       0.93687000 </v>
   <v>       0.87539000       0.00017000       0.93687000 </v>
   <v>       0.00013000       0.29519000       0.06281000 </v>
   <v>       0.25013000       0.70481000       0.06281000 </v>
   <v>       0.24987000       0.29519000       0.31282000 </v>
   <v>       0.49987000       0.70481000       0.31282000 </v>
   <v>       0.50013000       0.29519000       0.06281000 </v>
   <v>       0.75013000       0.70481000       0.06281000 </v>
   <v>       0.74987000       0.29519000       0.31282000 </v>
   <v>       0.99987000       0.70481000       0.31282000 </v>
   <v>       0.00013000       0.29519000       0.56281000 </v>
   <v>       0.25013000       0.70481000       0.56281000 </v>
   <v>       0.24987000       0.29519000       0.81282000 </v>
   <v>       0.49987000       0.70481000       0.81282000 </v>
   <v>       0.50013000       0.29519000       0.56281000 </v>
   <v>       0.75013000       0.70481000       0.56281000 </v>
   <v>       0.74987000       0.29519000       0.81282000 </v>
   <v>       0.99987000       0.70481000       0.81282000 </v>
   <v>       0.25005000       0.32677000       0.06286000 </v>
   <v>       0.00005000       0.67323000       0.06286000 </v>
   <v>       0.49995000       0.32677000       0.31286000 </v>
   <v>       0.24995000       0.67323000       0.31286000 </v>
   <v>       0.75005000       0.32677000       0.06286000 </v>
   <v>       0.50005000       0.67323000       0.06286000 </v>
   <v>       0.99995000       0.32677000       0.31286000 </v>
   <v>       0.74995000       0.67323000       0.31286000 </v>
   <v>       0.25005000       0.32677000       0.56286000 </v>
   <v>       0.00005000       0.67323000       0.56286000 </v>
   <v>       0.49995000       0.32677000       0.81286000 </v>
   <v>       0.24995000       0.67323000       0.81286000 </v>
   <v>       0.75005000       0.32677000       0.56286000 </v>
   <v>       0.50005000       0.67323000       0.56286000 </v>
   <v>       0.99995000       0.32677000       0.81286000 </v>
   <v>       0.74995000       0.67323000       0.81286000 </v>
   <v>       0.49987000       0.07798000       0.06246000 </v>
   <v>       0.24987000       0.92202000       0.06246000 </v>
   <v>       0.25013000       0.07798000       0.31246000 </v>
   <v>       0.00013000       0.92202000       0.31246000 </v>
   <v>       0.99987000       0.07798000       0.06246000 </v>
   <v>       0.74987000       0.92202000       0.06246000 </v>
   <v>       0.75013000       0.07798000       0.31246000 </v>
   <v>       0.50013000       0.92202000       0.31246000 </v>
   <v>       0.49987000       0.07798000       0.56246000 </v>
   <v>       0.24987000       0.92202000       0.56246000 </v>
   <v>       0.25013000       0.07798000       0.81246000 </v>
   <v>       0.00013000       0.92202000       0.81246000 </v>
   <v>       0.99987000       0.07798000       0.56246000 </v>
   <v>       0.74987000       0.92202000       0.56246000 </v>
   <v>       0.75013000       0.07798000       0.81246000 </v>
   <v>       0.50013000       0.92202000       0.81246000 </v>
  </varray>
 </structure>
</modeling>
