<?xml version="1.0" encoding="ISO-8859-1"?>
<modeling>
 <generator>
  <i name="program" type="string">vasp </i>
  <i name="version" type="string">5.4.4.18Apr17-6-g9f103f2a35  </i>
  <i name="subversion" type="string">(build Jul 31 2017 11:33:29) complex            parallel </i>
  <i name="platform" type="string">LinuxIFC </i>
  <i name="date" type="string">2021 09 24 </i>
  <i name="time" type="string">23:44:02 </i>
 </generator>
 <incar>
  <i type="string" name="SYSTEM"> La2O2S</i>
  <i type="string" name="PREC">normal</i>
  <i type="int" name="NELMIN">     4</i>
  <i type="int" name="IBRION">     2</i>
  <i type="int" name="NFREE">    10</i>
  <i name="EDIFF">      0.00000100</i>
  <i name="EDIFFG">     -0.01000000</i>
  <i type="int" name="NSW">   200</i>
  <i type="int" name="ISIF">     3</i>
  <i name="ENCUT">    600.00000000</i>
  <i name="ENAUG">    900.00000000</i>
  <i type="int" name="ISMEAR">    -5</i>
  <i type="logical" name="LWAVE"> F  </i>
  <i type="logical" name="LCHARG"> F  </i>
  <v type="int" name="KPOINT_BSE">    -1     0     0     0</v>
 </incar>
 <structure name="primitive_cell" >
  <crystal>
   <varray name="basis" >
    <v>      11.17850000       0.00000000       0.00000000 </v>
    <v>       0.00000000       9.57460000       0.00000000 </v>
    <v>       0.00000000       0.00000000      11.18240000 </v>
   </varray>
   <i name="volume">   1196.84853820 </i>
   <varray name="rec_basis" >
    <v>       0.08945744       0.00000000       0.00000000 </v>
    <v>       0.00000000       0.10444301       0.00000000 </v>
    <v>       0.00000000       0.00000000       0.08942624 </v>
   </varray>
  </crystal>
  <varray name="positions" >
   <v>       0.12461000      -0.00017000       0.18687000 </v>
   <v>      -0.00013000       0.07798000       0.06246000 </v>
   <v>       0.24987000      -0.07798000       0.06246000 </v>
   <v>       0.00013000      -0.07798000       0.31246000 </v>
   <v>       0.25013000       0.07798000       0.31246000 </v>
   <v>       0.37461000       0.00017000       0.18687000 </v>
   <v>      -0.12539000       0.00017000       0.18687000 </v>
   <v>       0.12539000      -0.00017000      -0.06313000 </v>
   <v>       0.00013000       0.29519000       0.06282000 </v>
   <v>       0.25013000      -0.29519000       0.06282000 </v>
   <v>      -0.00013000      -0.29519000       0.31282000 </v>
   <v>       0.24987000       0.29519000       0.31282000 </v>
   <v>       0.00005000      -0.32677000       0.06286000 </v>
   <v>       0.25005000       0.32677000       0.06286000 </v>
   <v>      -0.00005000       0.32677000       0.31286000 </v>
   <v>       0.24995000      -0.32677000       0.31286000 </v>
   <v>      -0.12461000       0.00017000       0.43687000 </v>
   <v>      -0.12461000       0.00017000      -0.06313000 </v>
   <v>       0.37539000       0.00017000      -0.06313000 </v>
   <v>       0.37539000       0.00017000       0.43687000 </v>
   <v>       0.00013000      -0.07798000      -0.18754000 </v>
   <v>      -0.25013000      -0.07798000       0.06246000 </v>
   <v>      -0.24987000       0.07798000       0.31246000 </v>
   <v>       0.25013000       0.07798000      -0.18754000 </v>
   <v>       0.49987000       0.07798000       0.06246000 </v>
   <v>      -0.00013000       0.07798000      -0.43754000 </v>
   <v>      -0.49987000      -0.07798000       0.31246000 </v>
   <v>       0.24987000      -0.07798000      -0.43754000 </v>
   <v>      -0.00013000      -0.29519000      -0.18718000 </v>
   <v>      -0.24987000      -0.29519000       0.06282000 </v>
   <v>       0.24987000       0.29519000      -0.18718000 </v>
   <v>      -0.25013000       0.29519000       0.31282000 </v>
   <v>      -0.49987000       0.29519000       0.06282000 </v>
   <v>       0.49987000      -0.29519000       0.31282000 </v>
   <v>       0.00013000       0.29519000      -0.43718000 </v>
   <v>       0.25013000      -0.29519000      -0.43718000 </v>
   <v>      -0.00005000       0.32677000      -0.18714000 </v>
   <v>       0.24995000      -0.32677000      -0.18714000 </v>
   <v>      -0.24995000       0.32677000       0.06286000 </v>
   <v>      -0.25005000      -0.32677000       0.31286000 </v>
   <v>      -0.49995000      -0.32677000       0.06286000 </v>
   <v>       0.49995000       0.32677000       0.31286000 </v>
   <v>       0.00005000      -0.32677000      -0.43714000 </v>
   <v>       0.25005000       0.32677000      -0.43714000 </v>
   <v>      -0.37539000      -0.00017000       0.18687000 </v>
   <v>       0.12461000      -0.00017000      -0.31313000 </v>
   <v>      -0.24987000       0.07798000      -0.18754000 </v>
   <v>      -0.49987000      -0.07798000      -0.18754000 </v>
   <v>      -0.25013000      -0.07798000      -0.43754000 </v>
   <v>       0.49987000       0.07798000      -0.43754000 </v>
   <v>      -0.37461000      -0.00017000       0.43687000 </v>
   <v>      -0.37461000      -0.00017000      -0.06313000 </v>
   <v>       0.37461000       0.00017000      -0.31313000 </v>
   <v>      -0.12539000       0.00017000      -0.31313000 </v>
   <v>      -0.25013000       0.29519000      -0.18718000 </v>
   <v>       0.49987000      -0.29519000      -0.18718000 </v>
   <v>      -0.24987000      -0.29519000      -0.43718000 </v>
   <v>      -0.49987000       0.29519000      -0.43718000 </v>
   <v>      -0.25005000      -0.32677000      -0.18714000 </v>
   <v>       0.49995000       0.32677000      -0.18714000 </v>
   <v>      -0.24995000       0.32677000      -0.43714000 </v>
   <v>      -0.49995000      -0.32677000      -0.43714000 </v>
   <v>      -0.37539000      -0.00017000      -0.31313000 </v>
  </varray>
 </structure>
 <varray name="primitive_index" >
  <v type="int" >        1 </v>
  <v type="int" >       52 </v>
  <v type="int" >       50 </v>
  <v type="int" >       49 </v>
  <v type="int" >       51 </v>
  <v type="int" >        2 </v>
  <v type="int" >        6 </v>
  <v type="int" >        7 </v>
  <v type="int" >       16 </v>
  <v type="int" >       17 </v>
  <v type="int" >       23 </v>
  <v type="int" >       18 </v>
  <v type="int" >       33 </v>
  <v type="int" >       32 </v>
  <v type="int" >       38 </v>
  <v type="int" >       35 </v>
  <v type="int" >        4 </v>
  <v type="int" >       12 </v>
  <v type="int" >        8 </v>
  <v type="int" >       15 </v>
  <v type="int" >       57 </v>
  <v type="int" >       54 </v>
  <v type="int" >       55 </v>
  <v type="int" >       59 </v>
  <v type="int" >       48 </v>
  <v type="int" >       60 </v>
  <v type="int" >       53 </v>
  <v type="int" >       58 </v>
  <v type="int" >       31 </v>
  <v type="int" >       21 </v>
  <v type="int" >       26 </v>
  <v type="int" >       22 </v>
  <v type="int" >       20 </v>
  <v type="int" >       19 </v>
  <v type="int" >       24 </v>
  <v type="int" >       25 </v>
  <v type="int" >       46 </v>
  <v type="int" >       43 </v>
  <v type="int" >       36 </v>
  <v type="int" >       39 </v>
  <v type="int" >       37 </v>
  <v type="int" >       34 </v>
  <v type="int" >       41 </v>
  <v type="int" >       40 </v>
  <v type="int" >        5 </v>
  <v type="int" >        9 </v>
  <v type="int" >       63 </v>
  <v type="int" >       61 </v>
  <v type="int" >       62 </v>
  <v type="int" >       56 </v>
  <v type="int" >        3 </v>
  <v type="int" >       11 </v>
  <v type="int" >       10 </v>
  <v type="int" >       14 </v>
  <v type="int" >       30 </v>
  <v type="int" >       27 </v>
  <v type="int" >       29 </v>
  <v type="int" >       28 </v>
  <v type="int" >       47 </v>
  <v type="int" >       42 </v>
  <v type="int" >       44 </v>
  <v type="int" >       45 </v>
  <v type="int" >       13 </v>
 </varray>
 <kpoints>
  <generation param="Gamma">
   <v type="int" name="divisions">       2        2        2 </v>
   <v name="usershift">      0.00000000       0.00000000       0.00000000 </v>
   <v name="genvec1">      0.50000000       0.00000000       0.00000000 </v>
   <v name="genvec2">      0.00000000       0.50000000       0.00000000 </v>
   <v name="genvec3">      0.00000000       0.00000000       0.50000000 </v>
   <v name="shift">      0.00000000       0.00000000       0.00000000 </v>
  </generation>
  <varray name="kpointlist" >
   <v>       0.00000000       0.00000000       0.00000000 </v>
   <v>       0.50000000       0.00000000       0.00000000 </v>
   <v>       0.00000000       0.50000000       0.00000000 </v>
   <v>       0.50000000       0.50000000       0.00000000 </v>
   <v>       0.00000000       0.00000000       0.50000000 </v>
   <v>       0.50000000       0.00000000       0.50000000 </v>
   <v>       0.00000000       0.50000000       0.50000000 </v>
   <v>       0.50000000       0.50000000       0.50000000 </v>
  </varray>
  <varray name="weights" >
   <v>       0.12500000 </v>
   <v>       0.12500000 </v>
   <v>       0.12500000 </v>
   <v>       0.12500000 </v>
   <v>       0.12500000 </v>
   <v>       0.12500000 </v>
   <v>       0.12500000 </v>
   <v>       0.12500000 </v>
  </varray>
  <varray name="tetrahedronlist"  type="int" >
   <v type="int" >        2        1        2        4        5 </v>
   <v type="int" >        2        1        3        4        5 </v>
   <v type="int" >        2        3        4        5        7 </v>
   <v type="int" >        2        2        4        5        6 </v>
   <v type="int" >        2        4        5        6        8 </v>
   <v type="int" >        2        4        5        7        8 </v>
   <v type="int" >        2        1        2        3        6 </v>
   <v type="int" >        2        2        3        4        6 </v>
   <v type="int" >        2        3        4        6        8 </v>
   <v type="int" >        2        1        3        5        6 </v>
   <v type="int" >        2        3        5        6        7 </v>
   <v type="int" >        2        3        6        7        8 </v>
   <v type="int" >        2        2        3        4        7 </v>
   <v type="int" >        2        1        2        3        7 </v>
   <v type="int" >        2        1        2        5        7 </v>
   <v type="int" >        2        2        4        7        8 </v>
   <v type="int" >        2        2        6        7        8 </v>
   <v type="int" >        2        2        5        6        7 </v>
   <v type="int" >        2        1        3        4        8 </v>
   <v type="int" >        2        1        2        4        8 </v>
   <v type="int" >        2        1        2        6        8 </v>
   <v type="int" >        2        1        3        7        8 </v>
   <v type="int" >        2        1        5        7        8 </v>
   <v type="int" >        2        1        5        6        8 </v>
  </varray>
  <i name="volumeweight">      0.02083333 </i>
 </kpoints>
 <parameters>
  <separator name="general" >
   <i type="string" name="SYSTEM">La2O2S</i>
   <i type="logical" name="LCOMPAT"> F  </i>
  </separator>
  <separator name="electronic" >
   <i type="string" name="PREC">normal</i>
   <i name="ENMAX">    600.00000000</i>
   <i name="ENAUG">    900.00000000</i>
   <i name="EDIFF">      0.00000100</i>
   <i type="int" name="IALGO">    38</i>
   <i type="int" name="IWAVPR">    11</i>
   <i type="int" name="NBANDS">   308</i>
   <i name="NELECT">    476.00000000</i>
   <i type="int" name="TURBO">     0</i>
   <i type="int" name="IRESTART">     0</i>
   <i type="int" name="NREBOOT">     0</i>
   <i type="int" name="NMIN">     0</i>
   <i name="EREF">      0.00000000</i>
   <separator name="electronic smearing" >
    <i type="int" name="ISMEAR">    -5</i>
    <i name="SIGMA">      0.20000000</i>
    <i name="KSPACING">      0.50000000</i>
    <i type="logical" name="KGAMMA"> T  </i>
   </separator>
   <separator name="electronic projectors" >
    <i type="logical" name="LREAL"> F  </i>
    <v name="ROPT">      0.00000000      0.00000000      0.00000000      0.00000000      0.00000000</v>
    <i type="int" name="LMAXPAW">  -100</i>
    <i type="int" name="LMAXMIX">     2</i>
    <i type="logical" name="NLSPLINE"> F  </i>
   </separator>
   <separator name="electronic startup" >
    <i type="int" name="ISTART">     0</i>
    <i type="int" name="ICHARG">     2</i>
    <i type="int" name="INIWAV">     1</i>
   </separator>
   <separator name="electronic spin" >
    <i type="int" name="ISPIN">     1</i>
    <i type="logical" name="LNONCOLLINEAR"> F  </i>
    <v name="MAGMOM">      1.00000000      1.00000000      1.00000000      1.00000000      1.00000000      1.00000000      1.00000000      1.00000000      1.00000000      1.00000000      1.00000000      1.00000000      1.00000000      1.00000000      1.00000000      1.00000000      1.00000000      1.00000000      1.00000000      1.00000000
      1.00000000      1.00000000      1.00000000      1.00000000      1.00000000      1.00000000      1.00000000      1.00000000      1.00000000      1.00000000      1.00000000      1.00000000      1.00000000      1.00000000      1.00000000      1.00000000      1.00000000      1.00000000      1.00000000      1.00000000
      1.00000000      1.00000000      1.00000000      1.00000000      1.00000000      1.00000000      1.00000000      1.00000000      1.00000000      1.00000000      1.00000000      1.00000000      1.00000000      1.00000000      1.00000000      1.00000000      1.00000000      1.00000000      1.00000000      1.00000000
      1.00000000      1.00000000      1.00000000</v>
    <i name="NUPDOWN">     -1.00000000</i>
    <i type="logical" name="LSORBIT"> F  </i>
    <v name="SAXIS">      0.00000000      0.00000000      1.00000000</v>
    <i type="logical" name="LSPIRAL"> F  </i>
    <v name="QSPIRAL">      0.00000000      0.00000000      0.00000000</v>
    <i type="logical" name="LZEROZ"> F  </i>
   </separator>
   <separator name="electronic exchange-correlation" >
    <i type="logical" name="LASPH"> F  </i>
    <i type="logical" name="LMETAGGA"> F  </i>
   </separator>
   <separator name="electronic convergence" >
    <i type="int" name="NELM">    60</i>
    <i type="int" name="NELMDL">    -5</i>
    <i type="int" name="NELMIN">     4</i>
    <i name="ENINI">    600.00000000</i>
    <separator name="electronic convergence detail" >
     <i type="logical" name="LDIAG"> T  </i>
     <i type="logical" name="LSUBROT"> F  </i>
     <i name="WEIMIN">      0.00100000</i>
     <i name="EBREAK">      0.00000000</i>
     <i name="DEPER">      0.30000000</i>
     <i type="int" name="NRMM">     4</i>
     <i name="TIME">      0.40000000</i>
    </separator>
   </separator>
   <separator name="electronic mixer" >
    <i name="AMIX">      0.40000000</i>
    <i name="BMIX">      1.00000000</i>
    <i name="AMIN">      0.10000000</i>
    <i name="AMIX_MAG">      1.60000000</i>
    <i name="BMIX_MAG">      1.00000000</i>
    <separator name="electronic mixer details" >
     <i type="int" name="IMIX">     4</i>
     <i type="logical" name="MIXFIRST"> F  </i>
     <i type="int" name="MAXMIX">   -45</i>
     <i name="WC">    100.00000000</i>
     <i type="int" name="INIMIX">     1</i>
     <i type="int" name="MIXPRE">     1</i>
     <i type="int" name="MREMOVE">     5</i>
    </separator>
   </separator>
   <separator name="electronic dipolcorrection" >
    <i type="logical" name="LDIPOL"> F  </i>
    <i type="logical" name="LMONO"> F  </i>
    <i type="int" name="IDIPOL">     0</i>
    <i name="EPSILON">      1.00000000</i>
    <v name="DIPOL">   -100.00000000   -100.00000000   -100.00000000</v>
    <i name="EFIELD">      0.00000000</i>
   </separator>
  </separator>
  <separator name="grids" >
   <i type="int" name="NGX">    70</i>
   <i type="int" name="NGY">    60</i>
   <i type="int" name="NGZ">    70</i>
   <i type="int" name="NGXF">   140</i>
   <i type="int" name="NGYF">   120</i>
   <i type="int" name="NGZF">   140</i>
   <i type="logical" name="ADDGRID"> F  </i>
  </separator>
  <separator name="ionic" >
   <i type="int" name="NSW">   200</i>
   <i type="int" name="IBRION">     2</i>
   <i type="int" name="MDALGO">     0</i>
   <i type="int" name="ISIF">     3</i>
   <i name="PSTRESS">      0.00000000</i>
   <i name="EDIFFG">     -0.01000000</i>
   <i type="int" name="NFREE">    10</i>
   <i name="POTIM">      0.50000000</i>
   <i name="SMASS">     -3.00000000</i>
   <i name="SCALEE">      1.00000000</i>
  </separator>
  <separator name="ionic md" >
   <i name="TEBEG">      0.00010000</i>
   <i name="TEEND">      0.00010000</i>
   <i type="int" name="NBLOCK">     1</i>
   <i type="int" name="KBLOCK">   200</i>
   <i type="int" name="NPACO">   256</i>
   <i name="APACO">     16.00000000</i>
  </separator>
  <separator name="symmetry" >
   <i type="int" name="ISYM">     2</i>
   <i name="SYMPREC">      0.00001000</i>
  </separator>
  <separator name="dos" >
   <i type="int" name="LORBIT">     0</i>
   <v name="RWIGS">     -1.00000000     -1.00000000     -1.00000000     -1.00000000     -1.00000000</v>
   <i type="int" name="NEDOS">   301</i>
   <i name="EMIN">     10.00000000</i>
   <i name="EMAX">    -10.00000000</i>
   <i name="EFERMI">      0.00000000</i>
  </separator>
  <separator name="writing" >
   <i type="int" name="NWRITE">     2</i>
   <i type="logical" name="LWAVE"> F  </i>
   <i type="logical" name="LDOWNSAMPLE"> F  </i>
   <i type="logical" name="LCHARG"> F  </i>
   <i type="logical" name="LPARD"> F  </i>
   <i type="logical" name="LVTOT"> F  </i>
   <i type="logical" name="LVHAR"> F  </i>
   <i type="logical" name="LELF"> F  </i>
   <i type="logical" name="LOPTICS"> F  </i>
   <v name="STM">      0.00000000      0.00000000      0.00000000      0.00000000      0.00000000      0.00000000      0.00000000</v>
  </separator>
  <separator name="performance" >
   <i type="int" name="NPAR">    28</i>
   <i type="int" name="NSIM">     4</i>
   <i type="int" name="NBLK">    -1</i>
   <i type="logical" name="LPLANE"> T  </i>
   <i type="logical" name="LSCALAPACK"> T  </i>
   <i type="logical" name="LSCAAWARE"> F  </i>
   <i type="logical" name="LSCALU"> F  </i>
   <i type="logical" name="LASYNC"> F  </i>
   <i type="logical" name="LORBITALREAL"> F  </i>
  </separator>
  <separator name="miscellaneous" >
   <i type="int" name="IDIOT">     3</i>
   <i type="int" name="ISPECIAL">     0</i>
   <i type="logical" name="LMUSIC"> F  </i>
   <v name="POMASS">      7.01000000     24.30500000    208.98000000     32.06600000     16.00000000</v>
   <v name="DARWINR">      0.00000000      0.00000000      0.00000000      0.00000000      0.00000000</v>
   <v name="DARWINV">      1.00000000      1.00000000      1.00000000      1.00000000      1.00000000</v>
   <i type="logical" name="LCORR"> T  </i>
  </separator>
  <i type="logical" name="GGA_COMPAT"> T  </i>
  <i type="logical" name="LBERRY"> F  </i>
  <i type="int" name="ICORELEVEL">     0</i>
  <i type="logical" name="LDAU"> F  </i>
  <i type="int" name="I_CONSTRAINED_M">     0</i>
  <separator name="electronic exchange-correlation" >
   <i type="string" name="GGA">--</i>
   <i type="int" name="VOSKOWN">     0</i>
   <i type="logical" name="LHFCALC"> F  </i>
   <i type="string" name="PRECFOCK"></i>
   <i type="logical" name="LSYMGRAD"> F  </i>
   <i type="logical" name="LHFONE"> F  </i>
   <i type="logical" name="LRHFCALC"> F  </i>
   <i type="logical" name="LTHOMAS"> F  </i>
   <i type="logical" name="LMODELHF"> F  </i>
   <i name="ENCUT4O">     -1.00000000</i>
   <i type="int" name="EXXOEP">     0</i>
   <i type="int" name="FOURORBIT">     0</i>
   <i name="AEXX">      0.00000000</i>
   <i name="HFALPHA">      0.00000000</i>
   <i name="MCALPHA">      0.00000000</i>
   <i name="ALDAX">      1.00000000</i>
   <i name="AGGAX">      1.00000000</i>
   <i name="ALDAC">      1.00000000</i>
   <i name="AGGAC">      1.00000000</i>
   <i type="int" name="NKREDX">     1</i>
   <i type="int" name="NKREDY">     1</i>
   <i type="int" name="NKREDZ">     1</i>
   <i type="logical" name="SHIFTRED"> F  </i>
   <i type="logical" name="ODDONLY"> F  </i>
   <i type="logical" name="EVENONLY"> F  </i>
   <i type="int" name="LMAXFOCK">     0</i>
   <i type="int" name="NMAXFOCKAE">     0</i>
   <i type="logical" name="LFOCKAEDFT"> F  </i>
   <i name="HFSCREEN">      0.00000000</i>
   <i name="HFSCREENC">      0.00000000</i>
   <i type="int" name="NBANDSGWLOW">     0</i>
  </separator>
  <separator name="vdW DFT" >
   <i type="logical" name="LUSE_VDW"> F  </i>
   <i name="Zab_VDW">     -0.84910000</i>
   <i name="PARAM1">      0.12340000</i>
   <i name="PARAM2">      1.00000000</i>
   <i name="PARAM3">      0.00000000</i>
  </separator>
  <separator name="model GW" >
   <i type="int" name="MODEL_GW">     0</i>
   <i name="MODEL_EPS0">     11.39855751</i>
   <i name="MODEL_ALPHA">      1.00000000</i>
  </separator>
  <separator name="linear response parameters" >
   <i type="logical" name="LEPSILON"> F  </i>
   <i type="logical" name="LRPA"> F  </i>
   <i type="logical" name="LNABLA"> F  </i>
   <i type="logical" name="LVEL"> F  </i>
   <i type="int" name="KINTER">     0</i>
   <i name="CSHIFT">      0.10000000</i>
   <i name="OMEGAMAX">     -1.00000000</i>
   <i name="DEG_THRESHOLD">      0.00200000</i>
   <i name="RTIME">     -0.10000000</i>
   <i name="WPLASMAI">      0.00000000</i>
   <v name="DFIELD">      0.00000000      0.00000000      0.00000000</v>
   <v name="WPLASMA">      0.00000000      0.00000000      0.00000000      0.00000000      0.00000000      0.00000000      0.00000000      0.00000000      0.00000000</v>
  </separator>
  <separator name="orbital magnetization" >
   <i type="logical" name="NUCIND"> F  </i>
   <v name="MAGPOS">      0.00000000      0.00000000      0.00000000</v>
   <i type="logical" name="LNICSALL"> T  </i>
   <i type="logical" name="ORBITALMAG"> F  </i>
   <i type="logical" name="LMAGBLOCH"> F  </i>
   <i type="logical" name="LCHIMAG"> F  </i>
   <i type="logical" name="LGAUGE"> T  </i>
   <i type="int" name="MAGATOM">     0</i>
   <v name="MAGDIPOL">      0.00000000      0.00000000      0.00000000</v>
   <v name="AVECCONST">      0.00000000      0.00000000      0.00000000</v>
  </separator>
  <separator name="response functions" >
   <i type="logical" name="LADDER"> F  </i>
   <i type="logical" name="LRPAFORCE"> F  </i>
   <i type="logical" name="LFXC"> F  </i>
   <i type="logical" name="LHARTREE"> T  </i>
   <i type="int" name="IBSE">     0</i>
   <v type="int" name="KPOINT">    -1     0     0     0</v>
   <i type="logical" name="LTCTE"> F  </i>
   <i type="logical" name="LTETE"> F  </i>
   <i type="logical" name="LTRIPLET"> F  </i>
   <i type="logical" name="LFXCEPS"> F  </i>
   <i type="logical" name="LFXHEG"> F  </i>
   <i type="int" name="NATURALO">     2</i>
   <i type="logical" name="L2ORDER"> F  </i>
   <i type="logical" name="LMP2LT"> F  </i>
   <i type="logical" name="LUSEW"> F  </i>
   <i name="ENCUTGW">     -2.00000000</i>
   <i name="ENCUTGWSOFT">     -2.00000000</i>
   <i name="ENCUTLF">     -1.00000000</i>
   <i type="int" name="LMAXMP2">    -1</i>
   <i name="SCISSOR">      0.00000000</i>
   <i type="int" name="NOMEGA">     0</i>
   <i type="int" name="NOMEGAR">     0</i>
   <i type="int" name="NBANDSGW">    -1</i>
   <i type="int" name="NBANDSO">    -1</i>
   <i type="int" name="NBANDSV">    -1</i>
   <i type="int" name="NELM">     1</i>
   <i type="int" name="NELMHF">     1</i>
   <i type="int" name="DIM">     3</i>
   <i type="int" name="ANTIRES">     0</i>
   <i name="OMEGAMAX">    -30.00000000</i>
   <i name="OMEGAMIN">    -30.00000000</i>
   <i name="OMEGATL">   -200.00000000</i>
   <i type="int" name="OMEGAGRID">   140</i>
   <i name="CSHIFT">     -0.10000000</i>
   <i type="logical" name="SELFENERGY"> F  </i>
   <i type="logical" name="LSPECTRAL"> F  </i>
   <i type="logical" name="LSPECTRALGW"> F  </i>
   <i type="logical" name="LSINGLES"> F  </i>
   <i type="logical" name="LFERMIGW"> F  </i>
   <i type="logical" name="ODDONLYGW"> F  </i>
   <i type="logical" name="EVENONLYGW"> F  </i>
   <i type="int" name="NKREDLFX">     1</i>
   <i type="int" name="NKREDLFY">     1</i>
   <i type="int" name="NKREDLFZ">     1</i>
   <i type="int" name="MAXMEM">  2800</i>
   <i type="int" name="TELESCOPE">     0</i>
   <i type="int" name="TAUPAR">     1</i>
   <i type="int" name="OMEGAPAR">    -1</i>
   <i name="LAMBDA">      1.00000000</i>
  </separator>
  <separator name="External order field" >
   <i name="OFIELD_KAPPA">      0.00000000</i>
   <v name="OFIELD_K">      0.00000000      0.00000000      0.00000000</v>
   <i name="OFIELD_Q6_NEAR">      0.00000000</i>
   <i name="OFIELD_Q6_FAR">      0.00000000</i>
   <i name="OFIELD_A">      0.00000000</i>
  </separator>
 </parameters>
 <atominfo>
  <atoms>      63 </atoms>
  <types>       5 </types>
  <array name="atoms" >
   <dimension dim="1">ion</dimension>
   <field type="string">element</field>
   <field type="int">atomtype</field>
   <set>
    <rc><c>Li</c><c>   1</c></rc>
    <rc><c>Li</c><c>   1</c></rc>
    <rc><c>Li</c><c>   1</c></rc>
    <rc><c>Li</c><c>   1</c></rc>
    <rc><c>Li</c><c>   1</c></rc>
    <rc><c>Li</c><c>   1</c></rc>
    <rc><c>Li</c><c>   1</c></rc>
    <rc><c>Li</c><c>   1</c></rc>
    <rc><c>Li</c><c>   1</c></rc>
    <rc><c>Li</c><c>   1</c></rc>
    <rc><c>Li</c><c>   1</c></rc>
    <rc><c>Li</c><c>   1</c></rc>
    <rc><c>Li</c><c>   1</c></rc>
    <rc><c>Li</c><c>   1</c></rc>
    <rc><c>Mg</c><c>   2</c></rc>
    <rc><c>Bi</c><c>   3</c></rc>
    <rc><c>Bi</c><c>   3</c></rc>
    <rc><c>Bi</c><c>   3</c></rc>
    <rc><c>Bi</c><c>   3</c></rc>
    <rc><c>Bi</c><c>   3</c></rc>
    <rc><c>Bi</c><c>   3</c></rc>
    <rc><c>Bi</c><c>   3</c></rc>
    <rc><c>Bi</c><c>   3</c></rc>
    <rc><c>Bi</c><c>   3</c></rc>
    <rc><c>Bi</c><c>   3</c></rc>
    <rc><c>Bi</c><c>   3</c></rc>
    <rc><c>Bi</c><c>   3</c></rc>
    <rc><c>Bi</c><c>   3</c></rc>
    <rc><c>Bi</c><c>   3</c></rc>
    <rc><c>Bi</c><c>   3</c></rc>
    <rc><c>Bi</c><c>   3</c></rc>
    <rc><c>S </c><c>   4</c></rc>
    <rc><c>S </c><c>   4</c></rc>
    <rc><c>S </c><c>   4</c></rc>
    <rc><c>S </c><c>   4</c></rc>
    <rc><c>S </c><c>   4</c></rc>
    <rc><c>S </c><c>   4</c></rc>
    <rc><c>S </c><c>   4</c></rc>
    <rc><c>S </c><c>   4</c></rc>
    <rc><c>S </c><c>   4</c></rc>
    <rc><c>S </c><c>   4</c></rc>
    <rc><c>S </c><c>   4</c></rc>
    <rc><c>S </c><c>   4</c></rc>
    <rc><c>S </c><c>   4</c></rc>
    <rc><c>S </c><c>   4</c></rc>
    <rc><c>S </c><c>   4</c></rc>
    <rc><c>S </c><c>   4</c></rc>
    <rc><c>O </c><c>   5</c></rc>
    <rc><c>O </c><c>   5</c></rc>
    <rc><c>O </c><c>   5</c></rc>
    <rc><c>O </c><c>   5</c></rc>
    <rc><c>O </c><c>   5</c></rc>
    <rc><c>O </c><c>   5</c></rc>
    <rc><c>O </c><c>   5</c></rc>
    <rc><c>O </c><c>   5</c></rc>
    <rc><c>O </c><c>   5</c></rc>
    <rc><c>O </c><c>   5</c></rc>
    <rc><c>O </c><c>   5</c></rc>
    <rc><c>O </c><c>   5</c></rc>
    <rc><c>O </c><c>   5</c></rc>
    <rc><c>O </c><c>   5</c></rc>
    <rc><c>O </c><c>   5</c></rc>
    <rc><c>O </c><c>   5</c></rc>
   </set>
  </array>
  <array name="atomtypes" >
   <dimension dim="1">type</dimension>
   <field type="int">atomspertype</field>
   <field type="string">element</field>
   <field>mass</field>
   <field>valence</field>
   <field type="string">pseudopotential</field>
   <set>
    <rc><c>  14</c><c>Li</c><c>      7.01000000</c><c>      3.00000000</c><c>  PAW_PBE Li_sv 10Sep2004               </c></rc>
    <rc><c>   1</c><c>Mg</c><c>     24.30500000</c><c>      2.00000000</c><c>  PAW_PBE Mg 13Apr2007                  </c></rc>
    <rc><c>  16</c><c>Bi</c><c>    208.98000000</c><c>     15.00000000</c><c>  PAW_PBE Bi_d 06Sep2000                </c></rc>
    <rc><c>  16</c><c>S </c><c>     32.06600000</c><c>      6.00000000</c><c>  PAW_PBE S 06Sep2000                   </c></rc>
    <rc><c>  16</c><c>O </c><c>     16.00000000</c><c>      6.00000000</c><c>  PAW_PBE O 08Apr2002                   </c></rc>
   </set>
  </array>
 </atominfo>
 <structure name="initialpos" >
  <crystal>
   <varray name="basis" >
    <v>      11.17850000       0.00000000       0.00000000 </v>
    <v>       0.00000000       9.57460000       0.00000000 </v>
    <v>       0.00000000       0.00000000      11.18240000 </v>
   </varray>
   <i name="volume">   1196.84853820 </i>
   <varray name="rec_basis" >
    <v>       0.08945744       0.00000000       0.00000000 </v>
    <v>       0.00000000       0.10444301       0.00000000 </v>
    <v>       0.00000000       0.00000000       0.08942624 </v>
   </varray>
  </crystal>
  <varray name="positions" >
   <v>       0.12461000       0.99983000       0.18687000 </v>
   <v>       0.37461000       0.00017000       0.18687000 </v>
   <v>       0.62539000       0.99983000       0.43687000 </v>
   <v>       0.87539000       0.00017000       0.43687000 </v>
   <v>       0.62461000       0.99983000       0.18687000 </v>
   <v>       0.87461000       0.00017000       0.18687000 </v>
   <v>       0.12539000       0.99983000       0.93687000 </v>
   <v>       0.37539000       0.00017000       0.93687000 </v>
   <v>       0.12461000       0.99983000       0.68687000 </v>
   <v>       0.37461000       0.00017000       0.68687000 </v>
   <v>       0.62539000       0.99983000       0.93687000 </v>
   <v>       0.87539000       0.00017000       0.93687000 </v>
   <v>       0.62461000       0.99983000       0.68687000 </v>
   <v>       0.87461000       0.00017000       0.68687000 </v>
   <v>       0.37539000       0.00017000       0.43687000 </v>
   <v>       0.00013000       0.29519000       0.06282000 </v>
   <v>       0.25013000       0.70481000       0.06282000 </v>
   <v>       0.24987000       0.29519000       0.31282000 </v>
   <v>       0.49987000       0.70481000       0.31282000 </v>
   <v>       0.50013000       0.29519000       0.06282000 </v>
   <v>       0.75013000       0.70481000       0.06282000 </v>
   <v>       0.74987000       0.29519000       0.31282000 </v>
   <v>       0.99987000       0.70481000       0.31282000 </v>
   <v>       0.00013000       0.29519000       0.56282000 </v>
   <v>       0.25013000       0.70481000       0.56282000 </v>
   <v>       0.24987000       0.29519000       0.81282000 </v>
   <v>       0.49987000       0.70481000       0.81282000 </v>
   <v>       0.50013000       0.29519000       0.56282000 </v>
   <v>       0.75013000       0.70481000       0.56282000 </v>
   <v>       0.74987000       0.29519000       0.81282000 </v>
   <v>       0.99987000       0.70481000       0.81282000 </v>
   <v>       0.25005000       0.32677000       0.06286000 </v>
   <v>       0.00005000       0.67323000       0.06286000 </v>
   <v>       0.49995000       0.32677000       0.31286000 </v>
   <v>       0.24995000       0.67323000       0.31286000 </v>
   <v>       0.75005000       0.32677000       0.06286000 </v>
   <v>       0.50005000       0.67323000       0.06286000 </v>
   <v>       0.99995000       0.32677000       0.31286000 </v>
   <v>       0.74995000       0.67323000       0.31286000 </v>
   <v>       0.25005000       0.32677000       0.56286000 </v>
   <v>       0.00005000       0.67323000       0.56286000 </v>
   <v>       0.49995000       0.32677000       0.81286000 </v>
   <v>       0.24995000       0.67323000       0.81286000 </v>
   <v>       0.75005000       0.32677000       0.56286000 </v>
   <v>       0.50005000       0.67323000       0.56286000 </v>
   <v>       0.99995000       0.32677000       0.81286000 </v>
   <v>       0.74995000       0.67323000       0.81286000 </v>
   <v>       0.49987000       0.07798000       0.06246000 </v>
   <v>       0.00013000       0.92202000       0.31246000 </v>
   <v>       0.24987000       0.92202000       0.06246000 </v>
   <v>       0.25013000       0.07798000       0.31246000 </v>
   <v>       0.99987000       0.07798000       0.06246000 </v>
   <v>       0.50013000       0.92202000       0.31246000 </v>
   <v>       0.74987000       0.92202000       0.06246000 </v>
   <v>       0.75013000       0.07798000       0.31246000 </v>
   <v>       0.49987000       0.07798000       0.56246000 </v>
   <v>       0.00013000       0.92202000       0.81246000 </v>
   <v>       0.24987000       0.92202000       0.56246000 </v>
   <v>       0.25013000       0.07798000       0.81246000 </v>
   <v>       0.99987000       0.07798000       0.56246000 </v>
   <v>       0.50013000       0.92202000       0.81246000 </v>
   <v>       0.74987000       0.92202000       0.56246000 </v>
   <v>       0.75013000       0.07798000       0.81246000 </v>
  </varray>
 </structure>
 <calculation>
  <scstep>
   <time name="dav">   64.63   64.80</time>
   <time name="total">   64.71   64.89</time>
   <energy>
    <i name="alphaZ">   1086.17722071 </i>
    <i name="ewald"> -31336.03865543 </i>
    <i name="hartreedc"> -12725.07018022 </i>
    <i name="XCdc">   1542.79847425 </i>
    <i name="pawpsdc">  37012.13516878 </i>
    <i name="pawaedc"> -36680.30965123 </i>
    <i name="eentropy">      0.00000000 </i>
    <i name="bandstr">   1532.07153546 </i>
    <i name="atom">  45556.09114881 </i>
    <i name="e_fr_energy">   5987.85506113 </i>
    <i name="e_wo_entrp">   5987.85506113 </i>
    <i name="e_0_energy">   5987.85506113 </i>
   </energy>
  </scstep>
  <scstep>
   <time name="dav">   64.92   65.17</time>
   <time name="total">   64.93   65.18</time>
   <energy>
    <i name="e_fr_energy">    774.80604014 </i>
    <i name="e_wo_entrp">    774.80604014 </i>
    <i name="e_0_energy">    774.80604014 </i>
   </energy>
  </scstep>
  <scstep>
   <time name="dav">   71.75   71.98</time>
   <time name="total">   71.76   71.98</time>
   <energy>
    <i name="e_fr_energy">   -243.43647864 </i>
    <i name="e_wo_entrp">   -243.43647864 </i>
    <i name="e_0_energy">   -243.43647864 </i>
   </energy>
  </scstep>
  <scstep>
   <time name="dav">   79.34   79.34</time>
   <time name="total">   79.34   79.34</time>
   <energy>
    <i name="e_fr_energy">   -357.19020217 </i>
    <i name="e_wo_entrp">   -357.19020217 </i>
    <i name="e_0_energy">   -357.19020217 </i>
   </energy>
  </scstep>
  <scstep>
   <time name="dav">  104.87  104.88</time>
   <time name="total">  105.61  105.62</time>
   <energy>
    <i name="e_fr_energy">   -367.13501244 </i>
    <i name="e_wo_entrp">   -367.13501244 </i>
    <i name="e_0_energy">   -367.13501244 </i>
   </energy>
  </scstep>
  <scstep>
   <time name="dav">   93.10   93.43</time>
   <time name="total">   93.89   94.23</time>
   <energy>
    <i name="e_fr_energy">   -305.82329270 </i>
    <i name="e_wo_entrp">   -305.82329270 </i>
    <i name="e_0_energy">   -305.82329270 </i>
   </energy>
  </scstep>
  <scstep>
   <time name="dav">   72.76   73.34</time>
   <time name="total">   73.56   74.14</time>
   <energy>
    <i name="e_fr_energy">   -308.04392825 </i>
    <i name="e_wo_entrp">   -308.04392825 </i>
    <i name="e_0_energy">   -308.04392825 </i>
   </energy>
  </scstep>
  <scstep>
   <time name="dav">   81.90   82.61</time>
   <time name="total">   82.70   83.41</time>
   <energy>
    <i name="e_fr_energy">   -306.54589852 </i>
    <i name="e_wo_entrp">   -306.54589852 </i>
    <i name="e_0_energy">   -306.54589852 </i>
   </energy>
  </scstep>
  <scstep>
   <time name="dav">   93.77   94.36</time>
   <time name="total">   94.57   95.16</time>
   <energy>
    <i name="e_fr_energy">   -305.85819864 </i>
    <i name="e_wo_entrp">   -305.85819864 </i>
    <i name="e_0_energy">   -305.85819864 </i>
   </energy>
  </scstep>
  <scstep>
   <time name="dav">   80.16   80.84</time>
   <time name="total">   80.96   81.64</time>
   <energy>
    <i name="e_fr_energy">   -305.84270005 </i>
    <i name="e_wo_entrp">   -305.84270005 </i>
    <i name="e_0_energy">   -305.84270005 </i>
   </energy>
  </scstep>
  <scstep>
   <time name="dav">   86.13   87.21</time>
   <time name="total">   86.94   88.02</time>
   <energy>
    <i name="e_fr_energy">   -305.85723800 </i>
    <i name="e_wo_entrp">   -305.85723800 </i>
    <i name="e_0_energy">   -305.85723800 </i>
   </energy>
  </scstep>
  <scstep>
   <time name="dav">   90.31   90.89</time>
   <time name="total">   91.11   91.70</time>
   <energy>
    <i name="e_fr_energy">   -305.86196920 </i>
    <i name="e_wo_entrp">   -305.86196920 </i>
    <i name="e_0_energy">   -305.86196920 </i>
   </energy>
  </scstep>
  <scstep>
   <time name="dav">   80.47   81.13</time>
   <time name="total">   81.28   81.94</time>
   <energy>
    <i name="e_fr_energy">   -305.86293841 </i>
    <i name="e_wo_entrp">   -305.86293841 </i>
    <i name="e_0_energy">   -305.86293841 </i>
   </energy>
  </scstep>
  <scstep>
   <time name="dav">   78.49   78.64</time>
   <time name="total">   79.29   79.44</time>
   <energy>
    <i name="e_fr_energy">   -305.86312475 </i>
    <i name="e_wo_entrp">   -305.86312475 </i>
    <i name="e_0_energy">   -305.86312475 </i>
   </energy>
  </scstep>
  <scstep>
   <time name="dav">   88.02   88.01</time>
   <time name="total">   88.82   88.82</time>
   <energy>
    <i name="e_fr_energy">   -305.86315410 </i>
    <i name="e_wo_entrp">   -305.86315410 </i>
    <i name="e_0_energy">   -305.86315410 </i>
   </energy>
  </scstep>
  <scstep>
   <time name="dav">   71.43   71.81</time>
   <time name="total">   72.24   72.61</time>
   <energy>
    <i name="e_fr_energy">   -305.86317008 </i>
    <i name="e_wo_entrp">   -305.86317008 </i>
    <i name="e_0_energy">   -305.86317008 </i>
   </energy>
  </scstep>
  <scstep>
   <time name="dav">   78.05   78.64</time>
   <time name="total">   78.83   79.46</time>
   <energy>
    <i name="e_fr_energy">   -305.86317188 </i>
    <i name="e_wo_entrp">   -305.86317188 </i>
    <i name="e_0_energy">   -305.86317188 </i>
   </energy>
  </scstep>
  <scstep>
   <time name="dav">   60.57   61.12</time>
   <time name="total">   60.64   61.19</time>
   <energy>
    <i name="alphaZ">   1086.17722071 </i>
    <i name="ewald"> -31336.03865543 </i>
    <i name="hartreedc"> -12961.24651999 </i>
    <i name="XCdc">   1565.18184627 </i>
    <i name="pawpsdc">  44045.92486431 </i>
    <i name="pawaedc"> -43690.34285644 </i>
    <i name="eentropy">      0.00000000 </i>
    <i name="bandstr">  -4571.61022033 </i>
    <i name="atom">  45556.09114881 </i>
    <i name="e_fr_energy">   -305.86317209 </i>
    <i name="e_wo_entrp">   -305.86317209 </i>
    <i name="e_0_energy">   -305.86317209 </i>
   </energy>
  </scstep>
  <structure>
   <crystal>
    <varray name="basis" >
     <v>      11.17850000       0.00000000       0.00000000 </v>
     <v>       0.00000000       9.57460000       0.00000000 </v>
     <v>       0.00000000       0.00000000      11.18240000 </v>
    </varray>
    <i name="volume">   1196.84853820 </i>
    <varray name="rec_basis" >
     <v>       0.08945744       0.00000000       0.00000000 </v>
     <v>       0.00000000       0.10444301       0.00000000 </v>
     <v>       0.00000000       0.00000000       0.08942624 </v>
    </varray>
   </crystal>
   <varray name="positions" >
    <v>       0.12461000       0.99983000       0.18687000 </v>
    <v>       0.37461000       0.00017000       0.18687000 </v>
    <v>       0.62539000       0.99983000       0.43687000 </v>
    <v>       0.87539000       0.00017000       0.43687000 </v>
    <v>       0.62461000       0.99983000       0.18687000 </v>
    <v>       0.87461000       0.00017000       0.18687000 </v>
    <v>       0.12539000       0.99983000       0.93687000 </v>
    <v>       0.37539000       0.00017000       0.93687000 </v>
    <v>       0.12461000       0.99983000       0.68687000 </v>
    <v>       0.37461000       0.00017000       0.68687000 </v>
    <v>       0.62539000       0.99983000       0.93687000 </v>
    <v>       0.87539000       0.00017000       0.93687000 </v>
    <v>       0.62461000       0.99983000       0.68687000 </v>
    <v>       0.87461000       0.00017000       0.68687000 </v>
    <v>       0.37539000       0.00017000       0.43687000 </v>
    <v>       0.00013000       0.29519000       0.06282000 </v>
    <v>       0.25013000       0.70481000       0.06282000 </v>
    <v>       0.24987000       0.29519000       0.31282000 </v>
    <v>       0.49987000       0.70481000       0.31282000 </v>
    <v>       0.50013000       0.29519000       0.06282000 </v>
    <v>       0.75013000       0.70481000       0.06282000 </v>
    <v>       0.74987000       0.29519000       0.31282000 </v>
    <v>       0.99987000       0.70481000       0.31282000 </v>
    <v>       0.00013000       0.29519000       0.56282000 </v>
    <v>       0.25013000       0.70481000       0.56282000 </v>
    <v>       0.24987000       0.29519000       0.81282000 </v>
    <v>       0.49987000       0.70481000       0.81282000 </v>
    <v>       0.50013000       0.29519000       0.56282000 </v>
    <v>       0.75013000       0.70481000       0.56282000 </v>
    <v>       0.74987000       0.29519000       0.81282000 </v>
    <v>       0.99987000       0.70481000       0.81282000 </v>
    <v>       0.25005000       0.32677000       0.06286000 </v>
    <v>       0.00005000       0.67323000       0.06286000 </v>
    <v>       0.49995000       0.32677000       0.31286000 </v>
    <v>       0.24995000       0.67323000       0.31286000 </v>
    <v>       0.75005000       0.32677000       0.06286000 </v>
    <v>       0.50005000       0.67323000       0.06286000 </v>
    <v>       0.99995000       0.32677000       0.31286000 </v>
    <v>       0.74995000       0.67323000       0.31286000 </v>
    <v>       0.25005000       0.32677000       0.56286000 </v>
    <v>       0.00005000       0.67323000       0.56286000 </v>
    <v>       0.49995000       0.32677000       0.81286000 </v>
    <v>       0.24995000       0.67323000       0.81286000 </v>
    <v>       0.75005000       0.32677000       0.56286000 </v>
    <v>       0.50005000       0.67323000       0.56286000 </v>
    <v>       0.99995000       0.32677000       0.81286000 </v>
    <v>       0.74995000       0.67323000       0.81286000 </v>
    <v>       0.49987000       0.07798000       0.06246000 </v>
    <v>       0.00013000       0.92202000       0.31246000 </v>
    <v>       0.24987000       0.92202000       0.06246000 </v>
    <v>       0.25013000       0.07798000       0.31246000 </v>
    <v>       0.99987000       0.07798000       0.06246000 </v>
    <v>       0.50013000       0.92202000       0.31246000 </v>
    <v>       0.74987000       0.92202000       0.06246000 </v>
    <v>       0.75013000       0.07798000       0.31246000 </v>
    <v>       0.49987000       0.07798000       0.56246000 </v>
    <v>       0.00013000       0.92202000       0.81246000 </v>
    <v>       0.24987000       0.92202000       0.56246000 </v>
    <v>       0.25013000       0.07798000       0.81246000 </v>
    <v>       0.99987000       0.07798000       0.56246000 </v>
    <v>       0.50013000       0.92202000       0.81246000 </v>
    <v>       0.74987000       0.92202000       0.56246000 </v>
    <v>       0.75013000       0.07798000       0.81246000 </v>
   </varray>
  </structure>
  <varray name="forces" >
   <v>      -0.11137914      -0.06557538       0.41745889 </v>
   <v>      -0.19578092       0.06395474      -0.31533078 </v>
   <v>       0.52148733       0.00025923       0.00621692 </v>
   <v>       0.52238062      -0.00164405       0.00544610 </v>
   <v>       0.13185314       0.06777573      -0.09042441 </v>
   <v>       0.20295178      -0.06272168       0.15731054 </v>
   <v>      -0.05094080       0.00035371       0.00562069 </v>
   <v>      -0.03619445      -0.00061575       0.00559369 </v>
   <v>      -0.11089822       0.06584927      -0.40655115 </v>
   <v>      -0.19593519      -0.06531004       0.32698049 </v>
   <v>       0.03332361       0.00021159       0.00574521 </v>
   <v>       0.02158523      -0.00048313       0.00573401 </v>
   <v>       0.13179531      -0.06741092       0.10073846 </v>
   <v>       0.20252245       0.06073179      -0.14491343 </v>
   <v>      -1.09619214      -0.00506218       0.03206724 </v>
   <v>      -0.01753329      -0.01270924       0.03415755 </v>
   <v>      -0.15080906      -0.00532824      -0.02712843 </v>
   <v>      -0.43720033      -0.01521364       0.02492808 </v>
   <v>       0.10939718      -1.05224342      -0.15121056 </v>
   <v>      -0.00329520       0.02275109      -0.06962842 </v>
   <v>       0.14812991       0.01010610      -0.00176226 </v>
   <v>       0.26275698       0.01269571      -0.00773992 </v>
   <v>       0.09026988       1.03647231       0.14163659 </v>
   <v>       0.07378719      -1.02516618      -0.15258141 </v>
   <v>      -0.44280411       0.01902118      -0.03416315 </v>
   <v>      -0.13756992       0.00494586       0.01834560 </v>
   <v>       0.00820018      -0.02215632       0.05946233 </v>
   <v>       0.09749973       1.04369210       0.14516247 </v>
   <v>       0.24918467      -0.01281915      -0.00139158 </v>
   <v>       0.15896690      -0.01017603      -0.00624216 </v>
   <v>      -0.00498679       0.01193139      -0.04209650 </v>
   <v>       0.07635435       0.18338925      -0.00546795 </v>
   <v>       0.00356716      -0.22096847      -0.10833603 </v>
   <v>      -0.03600611       0.09859957       0.12675434 </v>
   <v>       0.32143594      -0.11234586       0.02945338 </v>
   <v>      -0.08037488       0.17849091      -0.00045692 </v>
   <v>      -0.00100371      -0.14428327       0.07898392 </v>
   <v>      -0.01968831       0.19359472      -0.11659857 </v>
   <v>      -0.26625555      -0.18519282       0.00270167 </v>
   <v>       0.31731890       0.11268025      -0.03081260 </v>
   <v>      -0.02148900      -0.19330260       0.11685211 </v>
   <v>       0.00004032       0.14458034      -0.07828380 </v>
   <v>       0.07782514      -0.18354615       0.00561258 </v>
   <v>      -0.26537127       0.18457965      -0.00295107 </v>
   <v>      -0.03574260      -0.10098520      -0.12621054 </v>
   <v>       0.00507632       0.21999639       0.10563430 </v>
   <v>      -0.07894517      -0.17865600       0.00018383 </v>
   <v>       0.00436096      -0.07758202       0.07601811 </v>
   <v>      -0.61627639      -0.84151292      -0.66170596 </v>
   <v>       0.09509934       0.01926564      -0.00259372 </v>
   <v>       1.31495027       0.00077863      -0.11338870 </v>
   <v>       0.00373182       0.03572078      -0.07674817 </v>
   <v>      -0.46394530       0.84878327       0.55194760 </v>
   <v>      -0.08163511       0.01659864      -0.00267754 </v>
   <v>      -0.24479694      -0.02555289      -0.00081843 </v>
   <v>      -0.45892317      -0.84802988      -0.56595374 </v>
   <v>      -0.00684623      -0.03439061       0.07327343 </v>
   <v>       1.33427130       0.00577748       0.09862607 </v>
   <v>       0.08328669      -0.01869317       0.00001120 </v>
   <v>      -0.60350660       0.83789807       0.66459887 </v>
   <v>      -0.00645662       0.07755073      -0.07763365 </v>
   <v>      -0.23259305       0.02669603      -0.00165489 </v>
   <v>      -0.09203501      -0.01605497       0.00020017 </v>
  </varray>
  <varray name="stress" >
   <v>      -9.94452094      -0.06113213       0.01186772 </v>
   <v>      -0.06113200     -14.90607229       0.20018199 </v>
   <v>       0.01186745       0.20018200      -8.90554512 </v>
  </varray>
  <energy>
   <i name="e_fr_energy">   -322.96759871 </i>
   <i name="e_wo_entrp">   -322.96759871 </i>
   <i name="e_0_energy">      0.00000000 </i>
  </energy>
  <time name="totalsc"> 1575.09 1583.35</time>
 </calculation>
 <calculation>
  <scstep>
   <time name="dav">   69.30   69.45</time>
   <time name="total">   70.09   70.24</time>
   <energy>
    <i name="alphaZ">   1107.42751899 </i>
    <i name="ewald"> -31543.29157658 </i>
    <i name="hartreedc"> -13038.77682346 </i>
    <i name="XCdc">   1576.67921141 </i>
    <i name="pawpsdc">  44045.88393035 </i>
    <i name="pawaedc"> -43690.30427217 </i>
    <i name="eentropy">      0.00000000 </i>
    <i name="bandstr">  -4320.45208728 </i>
    <i name="atom">  45556.09114881 </i>
    <i name="e_fr_energy">   -306.74294993 </i>
    <i name="e_wo_entrp">   -306.74294993 </i>
    <i name="e_0_energy">   -306.74294993 </i>
   </energy>
  </scstep>
  <scstep>
   <time name="dav">   76.39   76.51</time>
   <time name="total">   77.18   77.30</time>
   <energy>
    <i name="e_fr_energy">   -306.38641775 </i>
    <i name="e_wo_entrp">   -306.38641775 </i>
    <i name="e_0_energy">   -306.38641775 </i>
   </energy>
  </scstep>
  <scstep>
   <time name="dav">   90.18   90.41</time>
   <time name="total">   90.97   91.21</time>
   <energy>
    <i name="e_fr_energy">   -306.14753896 </i>
    <i name="e_wo_entrp">   -306.14753896 </i>
    <i name="e_0_energy">   -306.14753896 </i>
   </energy>
  </scstep>
  <scstep>
   <time name="dav">   87.52   87.68</time>
   <time name="total">   88.31   88.47</time>
   <energy>
    <i name="e_fr_energy">   -306.11598811 </i>
    <i name="e_wo_entrp">   -306.11598811 </i>
    <i name="e_0_energy">   -306.11598811 </i>
   </energy>
  </scstep>
  <scstep>
   <time name="dav">   81.12   81.16</time>
   <time name="total">   81.91   81.95</time>
   <energy>
    <i name="e_fr_energy">   -306.11822352 </i>
    <i name="e_wo_entrp">   -306.11822352 </i>
    <i name="e_0_energy">   -306.11822352 </i>
   </energy>
  </scstep>
  <scstep>
   <time name="dav">   86.08   86.29</time>
   <time name="total">   86.87   87.09</time>
   <energy>
    <i name="e_fr_energy">   -306.11765212 </i>
    <i name="e_wo_entrp">   -306.11765212 </i>
    <i name="e_0_energy">   -306.11765212 </i>
   </energy>
  </scstep>
  <scstep>
   <time name="dav">   89.95   90.47</time>
   <time name="total">   90.76   91.29</time>
   <energy>
    <i name="e_fr_energy">   -306.11747957 </i>
    <i name="e_wo_entrp">   -306.11747957 </i>
    <i name="e_0_energy">   -306.11747957 </i>
   </energy>
  </scstep>
  <scstep>
   <time name="dav">   87.71   88.07</time>
   <time name="total">   88.50   88.86</time>
   <energy>
    <i name="e_fr_energy">   -306.11756218 </i>
    <i name="e_wo_entrp">   -306.11756218 </i>
    <i name="e_0_energy">   -306.11756218 </i>
   </energy>
  </scstep>
  <scstep>
   <time name="dav">   83.25   84.16</time>
   <time name="total">   84.04   84.96</time>
   <energy>
    <i name="e_fr_energy">   -306.11756149 </i>
    <i name="e_wo_entrp">   -306.11756149 </i>
    <i name="e_0_energy">   -306.11756149 </i>
   </energy>
  </scstep>
  <scstep>
   <time name="dav">   72.36   72.81</time>
   <time name="total">   73.15   73.60</time>
   <energy>
    <i name="e_fr_energy">   -306.11756485 </i>
    <i name="e_wo_entrp">   -306.11756485 </i>
    <i name="e_0_energy">   -306.11756485 </i>
   </energy>
  </scstep>
  <scstep>
   <time name="dav">   88.16   88.67</time>
   <time name="total">   88.95   89.47</time>
   <energy>
    <i name="e_fr_energy">   -306.11756243 </i>
    <i name="e_wo_entrp">   -306.11756243 </i>
    <i name="e_0_energy">   -306.11756243 </i>
   </energy>
  </scstep>
  <scstep>
   <time name="dav">   66.37   66.73</time>
   <time name="total">   66.44   66.81</time>
   <energy>
    <i name="alphaZ">   1107.42751899 </i>
    <i name="ewald"> -31543.29157658 </i>
    <i name="hartreedc"> -12854.46177156 </i>
    <i name="XCdc">   1567.92999626 </i>
    <i name="pawpsdc">  44419.31338671 </i>
    <i name="pawaedc"> -44066.46259600 </i>
    <i name="eentropy">      0.00000000 </i>
    <i name="bandstr">  -4492.66366924 </i>
    <i name="atom">  45556.09114881 </i>
    <i name="e_fr_energy">   -306.11756260 </i>
    <i name="e_wo_entrp">   -306.11756260 </i>
    <i name="e_0_energy">   -306.11756260 </i>
   </energy>
  </scstep>
  <structure>
   <crystal>
    <varray name="basis" >
     <v>      11.11491032      -0.00039091       0.00007589 </v>
     <v>      -0.00033482       9.49295998       0.00109639 </v>
     <v>       0.00007591       0.00128050      11.12543412 </v>
    </varray>
    <i name="volume">   1173.88235035 </i>
    <varray name="rec_basis" >
     <v>       0.08996924       0.00000317      -0.00000061 </v>
     <v>       0.00000370       0.10534122      -0.00001212 </v>
     <v>      -0.00000061      -0.00001038       0.08988413 </v>
    </varray>
   </crystal>
   <varray name="positions" >
    <v>       0.12412932       0.99949959       0.18867098 </v>
    <v>       0.37376508       0.00049224       0.18550961 </v>
    <v>       0.62764056       0.99983131       0.43689682 </v>
    <v>       0.87764442       0.00016172       0.43689350 </v>
    <v>       0.62517903       0.00017150       0.18647989 </v>
    <v>       0.87548587      -0.00014603       0.18754866 </v>
    <v>       0.12517016       0.99983178       0.93689425 </v>
    <v>       0.37523380       0.00016690       0.93689413 </v>
    <v>       0.12413140       0.00016179       0.68511607 </v>
    <v>       0.37376441      -0.00015907       0.68828065 </v>
    <v>       0.62553381       0.99983107       0.93689479 </v>
    <v>       0.87548315       0.00016757       0.93689474 </v>
    <v>       0.62517878       0.99949034       0.68730460 </v>
    <v>       0.87548402       0.00047600       0.68624482 </v>
    <v>       0.37065920       0.00014449       0.43700834 </v>
    <v>       0.00005433       0.29512596       0.06296736 </v>
    <v>       0.24947916       0.70478315       0.06270296 </v>
    <v>       0.24798319       0.29511334       0.31292754 </v>
    <v>       0.50034212       0.69950816       0.31216765 </v>
    <v>       0.50011578       0.29530463       0.06251961 </v>
    <v>       0.75076928       0.70486092       0.06281240 </v>
    <v>       0.75100397       0.29525397       0.31278661 </v>
    <v>       0.00025957       0.71003238       0.31343104 </v>
    <v>       0.00044844       0.29002459       0.56216174 </v>
    <v>       0.24821901       0.70490584       0.56267261 </v>
    <v>       0.24927629       0.29521492       0.81289915 </v>
    <v>       0.49990539       0.70469836       0.81307653 </v>
    <v>       0.50055078       0.30044876       0.56344625 </v>
    <v>       0.75120540       0.70474541       0.56281400 </v>
    <v>       0.75055605       0.29513873       0.81279307 </v>
    <v>       0.99984848       0.70487012       0.81263839 </v>
    <v>       0.25037952       0.32769403       0.06283641 </v>
    <v>       0.00006539       0.67211663       0.06239262 </v>
    <v>       0.49979461       0.32726680       0.31340684 </v>
    <v>       0.25133721       0.67266393       0.31298707 </v>
    <v>       0.74970313       0.32766935       0.06285803 </v>
    <v>       0.50004567       0.67250301       0.06320075 </v>
    <v>       0.99986503       0.32774545       0.31235698 </v>
    <v>       0.74880093       0.67229689       0.31287166 </v>
    <v>       0.25141944       0.32733775       0.56272707 </v>
    <v>      -0.00004274       0.67225602       0.56336412 </v>
    <v>       0.49995017       0.32749848       0.81252227 </v>
    <v>       0.25028587       0.67230518       0.81288421 </v>
    <v>       0.74890475       0.32770002       0.56284727 </v>
    <v>       0.49989575       0.67272118       0.56231551 </v>
    <v>       0.99997191       0.32787848       0.81331572 </v>
    <v>       0.74960930       0.67232982       0.81286079 </v>
    <v>       0.49988882       0.07758909       0.06278795 </v>
    <v>      -0.00252964       0.91777995       0.30960530 </v>
    <v>       0.25028042       0.92211707       0.06244881 </v>
    <v>       0.25580488       0.07798392       0.31197082 </v>
    <v>       0.99988611       0.07815998       0.06212890 </v>
    <v>       0.49812777       0.92629669       0.31484119 </v>
    <v>       0.74951769       0.92210363       0.06244845 </v>
    <v>       0.74907354       0.07785125       0.31245647 </v>
    <v>       0.49788944       0.07370711       0.56001839 </v>
    <v>       0.00010045       0.92184672       0.81277611 </v>
    <v>       0.25562827       0.92204911       0.56288549 </v>
    <v>       0.25048944       0.07788581       0.81246005 </v>
    <v>       0.99726547       0.08220184       0.56532719 </v>
    <v>       0.50010214       0.92241075       0.81212508 </v>
    <v>       0.74886621       0.92215451       0.56245286 </v>
    <v>       0.74973281       0.07789911       0.81246086 </v>
   </varray>
  </structure>
  <varray name="forces" >
   <v>      -0.01174989      -0.03062539       0.30563999 </v>
   <v>      -0.04861925       0.03267818      -0.16577481 </v>
   <v>       0.18496654      -0.00043516       0.00655657 </v>
   <v>       0.32550939      -0.00014946       0.00499932 </v>
   <v>       0.01130277       0.03751909       0.01553890 </v>
   <v>       0.09443935      -0.03165399       0.07246005 </v>
   <v>      -0.03350907       0.00113266       0.00625754 </v>
   <v>      -0.01588482      -0.00128213       0.00624959 </v>
   <v>      -0.01111290       0.03171507      -0.29616686 </v>
   <v>      -0.04670085      -0.03318089       0.18293908 </v>
   <v>       0.01439547       0.00072898       0.00621337 </v>
   <v>       0.00584347      -0.00092208       0.00592094 </v>
   <v>       0.01090565      -0.03462146      -0.00334778 </v>
   <v>       0.09190059       0.02678699      -0.05801216 </v>
   <v>      -0.32293015      -0.01279260       0.03118518 </v>
   <v>      -0.01971990       0.36272458      -0.02989012 </v>
   <v>      -0.06204096      -0.30042115      -0.02619325 </v>
   <v>      -0.14248010       0.31510992       0.00991902 </v>
   <v>       0.05580517       0.05241906      -0.01836309 </v>
   <v>      -0.00026013       0.22859087       0.00702291 </v>
   <v>       0.06459767      -0.29494724      -0.00243368 </v>
   <v>       0.03530355       0.28762384      -0.00912154 </v>
   <v>       0.07286155      -1.13276499       0.07521277 </v>
   <v>       0.06417617       1.12915305      -0.07767087 </v>
   <v>      -0.14846004      -0.31736112      -0.02075814 </v>
   <v>      -0.05292484       0.30085896       0.01833693 </v>
   <v>       0.00893951      -0.22909448      -0.01393354 </v>
   <v>       0.04328751      -0.05298513       0.00795905 </v>
   <v>       0.02646463      -0.28643511       0.00008992 </v>
   <v>       0.07407104       0.29555293      -0.00443003 </v>
   <v>      -0.01113698      -0.36213351       0.02224437 </v>
   <v>       0.02761018       0.17929568       0.00285690 </v>
   <v>       0.00782555      -0.20833386      -0.04666142 </v>
   <v>      -0.02703579       0.22264934       0.05533271 </v>
   <v>       0.14546917      -0.11883809       0.03216756 </v>
   <v>      -0.03408722       0.17816682      -0.00153540 </v>
   <v>      -0.00129800      -0.15953487       0.02144442 </v>
   <v>      -0.01633373       0.11467926      -0.06225327 </v>
   <v>      -0.10167995      -0.18829613       0.00183859 </v>
   <v>       0.14388310       0.11839039      -0.03252393 </v>
   <v>      -0.01499588      -0.11421525       0.06218020 </v>
   <v>      -0.00083697       0.15946972      -0.02203281 </v>
   <v>       0.02848870      -0.17904056      -0.00374145 </v>
   <v>      -0.10166779       0.18807010      -0.00174311 </v>
   <v>      -0.02803906      -0.22350967      -0.05453315 </v>
   <v>       0.00782279       0.20762637       0.04501223 </v>
   <v>      -0.03391401      -0.17815362       0.00092010 </v>
   <v>       0.00903892      -0.23132131      -0.00957876 </v>
   <v>      -0.49633369       1.28228399      -0.51276069 </v>
   <v>       0.00248482       0.28367949      -0.00297003 </v>
   <v>       0.64471614      -0.15422463      -0.28630281 </v>
   <v>       0.01313160      -0.33338783      -0.00164769 </v>
   <v>      -0.29122198      -0.30954876       0.25855798 </v>
   <v>      -0.00865782       0.28975073      -0.00444495 </v>
   <v>      -0.00811540      -0.26763896      -0.00687526 </v>
   <v>      -0.28326209       0.30506961      -0.26354307 </v>
   <v>       0.00490677       0.33224572      -0.00239960 </v>
   <v>       0.66641583       0.16837033       0.26573155 </v>
   <v>      -0.00508708      -0.28408530      -0.00146624 </v>
   <v>      -0.48780266      -1.26977069       0.50453776 </v>
   <v>      -0.00010206       0.23300193       0.00415880 </v>
   <v>      -0.00060399       0.26665309       0.00342940 </v>
   <v>      -0.01795856      -0.29029133       0.00019575 </v>
  </varray>
  <varray name="stress" >
   <v>       3.89388152      -0.04195758       0.01780392 </v>
   <v>      -0.04195781       5.04746641      -0.44871296 </v>
   <v>       0.01780357      -0.44871287       3.10838700 </v>
  </varray>
  <energy>
   <i name="e_fr_energy">   -323.47163894 </i>
   <i name="e_wo_entrp">   -323.47163894 </i>
   <i name="e_0_energy">      0.00000000 </i>
  </energy>
  <time name="totalsc"> 1098.76 1103.46</time>
 </calculation>
 <calculation>
  <scstep>
   <time name="dav">   79.01   79.14</time>
   <time name="total">   79.80   79.94</time>
   <energy>
    <i name="alphaZ">   1106.76322868 </i>
    <i name="ewald"> -31537.02184864 </i>
    <i name="hartreedc"> -12851.94573279 </i>
    <i name="XCdc">   1567.57208684 </i>
    <i name="pawpsdc">  44419.17105761 </i>
    <i name="pawaedc"> -44066.32786206 </i>
    <i name="eentropy">      0.00000000 </i>
    <i name="bandstr">  -4500.42930949 </i>
    <i name="atom">  45556.09114881 </i>
    <i name="e_fr_energy">   -306.12723104 </i>
    <i name="e_wo_entrp">   -306.12723104 </i>
    <i name="e_0_energy">   -306.12723104 </i>
   </energy>
  </scstep>
  <scstep>
   <time name="dav">   72.78   72.77</time>
   <time name="total">   73.57   73.56</time>
   <energy>
    <i name="e_fr_energy">   -306.12661222 </i>
    <i name="e_wo_entrp">   -306.12661222 </i>
    <i name="e_0_energy">   -306.12661222 </i>
   </energy>
  </scstep>
  <scstep>
   <time name="dav">   87.34   87.31</time>
   <time name="total">   88.13   88.11</time>
   <energy>
    <i name="e_fr_energy">   -306.12638610 </i>
    <i name="e_wo_entrp">   -306.12638610 </i>
    <i name="e_0_energy">   -306.12638610 </i>
   </energy>
  </scstep>
  <scstep>
   <time name="dav">   90.24   90.52</time>
   <time name="total">   91.03   91.31</time>
   <energy>
    <i name="e_fr_energy">   -306.12635352 </i>
    <i name="e_wo_entrp">   -306.12635352 </i>
    <i name="e_0_energy">   -306.12635352 </i>
   </energy>
  </scstep>
  <scstep>
   <time name="dav">   81.20   82.31</time>
   <time name="total">   81.99   83.11</time>
   <energy>
    <i name="e_fr_energy">   -306.12634801 </i>
    <i name="e_wo_entrp">   -306.12634801 </i>
    <i name="e_0_energy">   -306.12634801 </i>
   </energy>
  </scstep>
  <scstep>
   <time name="dav">   71.84   72.56</time>
   <time name="total">   72.64   73.38</time>
   <energy>
    <i name="e_fr_energy">   -306.12634183 </i>
    <i name="e_wo_entrp">   -306.12634183 </i>
    <i name="e_0_energy">   -306.12634183 </i>
   </energy>
  </scstep>
  <scstep>
   <time name="dav">   52.24   53.06</time>
   <time name="total">   53.03   53.85</time>
   <energy>
    <i name="e_fr_energy">   -306.12633728 </i>
    <i name="e_wo_entrp">   -306.12633728 </i>
    <i name="e_0_energy">   -306.12633728 </i>
   </energy>
  </scstep>
  <scstep>
   <time name="dav">   51.15   51.77</time>
   <time name="total">   51.22   51.85</time>
   <energy>
    <i name="alphaZ">   1106.76322868 </i>
    <i name="ewald"> -31537.02184864 </i>
    <i name="hartreedc"> -12857.63496978 </i>
    <i name="XCdc">   1567.84261079 </i>
    <i name="pawpsdc">  44406.92619464 </i>
    <i name="pawaedc"> -44053.98821151 </i>
    <i name="eentropy">      0.00000000 </i>
    <i name="bandstr">  -4495.10449005 </i>
    <i name="atom">  45556.09114881 </i>
    <i name="e_fr_energy">   -306.12633706 </i>
    <i name="e_wo_entrp">   -306.12633706 </i>
    <i name="e_0_energy">   -306.12633706 </i>
   </energy>
  </scstep>
  <structure>
   <crystal>
    <varray name="basis" >
     <v>      11.11687311      -0.00037884       0.00007355 </v>
     <v>      -0.00032448       9.49547992       0.00106255 </v>
     <v>       0.00007357       0.00124097      11.12719246 </v>
    </varray>
    <i name="volume">   1174.58692622 </i>
    <varray name="rec_basis" >
     <v>       0.08995335       0.00000307      -0.00000060 </v>
     <v>       0.00000359       0.10531327      -0.00001175 </v>
     <v>      -0.00000059      -0.00001006       0.08986993 </v>
    </varray>
   </crystal>
   <varray name="positions" >
    <v>       0.12414425       0.99950989       0.18861511 </v>
    <v>       0.37379130       0.00048221       0.18555182 </v>
    <v>       0.62757070       0.99983126       0.43689599 </v>
    <v>       0.87757444       0.00016197       0.43689277 </v>
    <v>       0.62516137       0.00016086       0.18649200 </v>
    <v>       0.87545868      -0.00013619       0.18752761 </v>
    <v>       0.12517698       0.99983173       0.93689350 </v>
    <v>       0.37523865       0.00016699       0.93689338 </v>
    <v>       0.12414626       0.00015145       0.68517049 </v>
    <v>       0.37379066      -0.00014882       0.68823688 </v>
    <v>       0.62552935       0.99983103       0.93689402 </v>
    <v>       0.87548026       0.00016764       0.93689397 </v>
    <v>       0.62516113       0.99950092       0.68729112 </v>
    <v>       0.87545689       0.00046647       0.68626422 </v>
    <v>       0.37080606       0.00014529       0.43700405 </v>
    <v>       0.00005668       0.29512796       0.06296279 </v>
    <v>       0.24949936       0.70478399       0.06270659 </v>
    <v>       0.24804176       0.29511573       0.31292421 </v>
    <v>       0.50032747       0.69967321       0.31218788 </v>
    <v>       0.50011622       0.29530106       0.06252893 </v>
    <v>       0.75074943       0.70485933       0.06281263 </v>
    <v>       0.75096877       0.29525198       0.31278765 </v>
    <v>       0.00024748       0.70986980       0.31341210 </v>
    <v>       0.00043856       0.29018540       0.56218215 </v>
    <v>       0.24827833       0.70490286       0.56267719 </v>
    <v>       0.24929472       0.29521415       0.81289669 </v>
    <v>       0.49990429       0.70470184       0.81306857 </v>
    <v>       0.50053771       0.30028504       0.56342684 </v>
    <v>       0.75117201       0.70474742       0.56281418 </v>
    <v>       0.75053475       0.29514032       0.81279391 </v>
    <v>       0.99984915       0.70486825       0.81264402 </v>
    <v>       0.25036929       0.32766526       0.06283715 </v>
    <v>       0.00006492       0.67215129       0.06240712 </v>
    <v>       0.49979943       0.32725134       0.31338987 </v>
    <v>       0.25129415       0.67268155       0.31298312 </v>
    <v>       0.74971390       0.32764135       0.06285809 </v>
    <v>       0.50004580       0.67252565       0.06319018 </v>
    <v>       0.99986767       0.32771508       0.31237258 </v>
    <v>       0.74883660       0.67232594       0.31287129 </v>
    <v>       0.25137693       0.32732007       0.56273120 </v>
    <v>      -0.00003986       0.67228635       0.56334848 </v>
    <v>       0.49995017       0.32747580       0.81253275 </v>
    <v>       0.25027544       0.67233397       0.81288346 </v>
    <v>       0.74894030       0.32767107       0.56284767 </v>
    <v>       0.49990054       0.67273701       0.56233240 </v>
    <v>       0.99997123       0.32784397       0.81330159 </v>
    <v>       0.74961988       0.67235785       0.81286077 </v>
    <v>       0.49988824       0.07760127       0.06277778 </v>
    <v>      -0.00244708       0.91791194       0.30969385 </v>
    <v>       0.25026768       0.92211405       0.06244916 </v>
    <v>       0.25562872       0.07798379       0.31198600 </v>
    <v>       0.99988561       0.07815438       0.06213917 </v>
    <v>       0.49818992       0.92616356       0.31476733 </v>
    <v>       0.74952863       0.92210103       0.06244881 </v>
    <v>       0.74910633       0.07785526       0.31245658 </v>
    <v>       0.49795093       0.07384013       0.56009412 </v>
    <v>       0.00010137       0.92185212       0.81276631 </v>
    <v>       0.25544951       0.92204820       0.56287229 </v>
    <v>       0.25047828       0.07788874       0.81246005 </v>
    <v>       0.99734632       0.08207042       0.56523824 </v>
    <v>       0.50010300       0.92239858       0.81213547 </v>
    <v>       0.74889737       0.92215032       0.56245308 </v>
    <v>       0.74974514       0.07790162       0.81246084 </v>
   </varray>
  </structure>
  <varray name="forces" >
   <v>      -0.01497780      -0.03187568       0.30918623 </v>
   <v>      -0.05335937       0.03372379      -0.17024257 </v>
   <v>       0.19527382      -0.00041639       0.00652730 </v>
   <v>       0.33171223      -0.00019071       0.00499693 </v>
   <v>       0.01510563       0.03847200       0.01229889 </v>
   <v>       0.09804500      -0.03288441       0.07529309 </v>
   <v>      -0.03415968       0.00110884       0.00622965 </v>
   <v>      -0.01658540      -0.00126121       0.00622824 </v>
   <v>      -0.01436725       0.03293576      -0.29968430 </v>
   <v>      -0.05151504      -0.03426461       0.18722582 </v>
   <v>       0.01500120       0.00071217       0.00619605 </v>
   <v>       0.00645988      -0.00090783       0.00591411 </v>
   <v>       0.01472064      -0.03565393      -0.00016110 </v>
   <v>       0.09558011       0.02811051      -0.06092086 </v>
   <v>      -0.34896412      -0.01259656       0.03130014 </v>
   <v>      -0.01972150       0.35059326      -0.02785595 </v>
   <v>      -0.06486905      -0.29094564      -0.02633573 </v>
   <v>      -0.15161620       0.30519436       0.01044304 </v>
   <v>       0.05776150       0.02353435      -0.02273441 </v>
   <v>      -0.00035823       0.22204249       0.00459338 </v>
   <v>       0.06727120      -0.28511127      -0.00247437 </v>
   <v>       0.04246091       0.27872683      -0.00910205 </v>
   <v>       0.07219562      -1.04793388       0.07599652 </v>
   <v>       0.06326975       1.04500031      -0.07877836 </v>
   <v>      -0.15754938      -0.30727424      -0.02121560 </v>
   <v>      -0.05562590       0.29135513       0.01843617 </v>
   <v>       0.00892994      -0.22249638      -0.01162455 </v>
   <v>       0.04521896      -0.02429160       0.01247644 </v>
   <v>       0.03346953      -0.27758305       0.00005743 </v>
   <v>       0.07678965       0.28569609      -0.00443617 </v>
   <v>      -0.01098529      -0.35005402       0.02017847 </v>
   <v>       0.02905450       0.17946064       0.00254609 </v>
   <v>       0.00771028      -0.20878378      -0.04873013 </v>
   <v>      -0.02736631       0.21901924       0.05767849 </v>
   <v>       0.15111518      -0.11877012       0.03209956 </v>
   <v>      -0.03546991       0.17823125      -0.00150142 </v>
   <v>      -0.00131187      -0.15916060       0.02339741 </v>
   <v>      -0.01628597       0.11721331      -0.06396088 </v>
   <v>      -0.10712713      -0.18831066       0.00186132 </v>
   <v>       0.14945181       0.11833899      -0.03249322 </v>
   <v>      -0.01503598      -0.11675235       0.06389496 </v>
   <v>      -0.00083728       0.15910605      -0.02394941 </v>
   <v>       0.02994382      -0.17921764      -0.00340215 </v>
   <v>      -0.10707864       0.18807331      -0.00178017 </v>
   <v>      -0.02833108      -0.21992436      -0.05689565 </v>
   <v>       0.00774534       0.20806730       0.04703740 </v>
   <v>      -0.03526407      -0.17822358       0.00089188 </v>
   <v>       0.00883900      -0.22624760      -0.00691589 </v>
   <v>      -0.49915858       1.19879026      -0.51634432 </v>
   <v>       0.00531267       0.27513926      -0.00291820 </v>
   <v>       0.66731605      -0.15066222      -0.27930528 </v>
   <v>       0.01284656      -0.32146593      -0.00402538 </v>
   <v>      -0.29730179      -0.27835476       0.26833434 </v>
   <v>      -0.01082013       0.28085125      -0.00441091 </v>
   <v>      -0.01546871      -0.25978325      -0.00664763 </v>
   <v>      -0.28938034       0.27400174      -0.27355132 </v>
   <v>       0.00454992       0.32040251      -0.00000428 </v>
   <v>       0.68903354       0.16465957       0.25888950 </v>
   <v>      -0.00239315      -0.27550879      -0.00146226 </v>
   <v>      -0.49057758      -1.18702760       0.50860030 </v>
   <v>      -0.00035445       0.22787536       0.00160748 </v>
   <v>      -0.00780899       0.25885472       0.00323535 </v>
   <v>      -0.02015807      -0.28135598       0.00021256 </v>
  </varray>
  <varray name="stress" >
   <v>       3.41519052      -0.04259982       0.01777018 </v>
   <v>      -0.04259960       4.27198936      -0.41466659 </v>
   <v>       0.01777013      -0.41466608       2.68711226 </v>
  </varray>
  <energy>
   <i name="e_fr_energy">   -323.47245773 </i>
   <i name="e_wo_entrp">   -323.47245773 </i>
   <i name="e_0_energy">      0.00000000 </i>
  </energy>
  <time name="totalsc">  703.03  707.39</time>
 </calculation>
 <calculation>
  <scstep>
   <time name="dav">   64.06   64.62</time>
   <time name="total">   64.85   65.43</time>
   <energy>
    <i name="alphaZ">   1111.20577952 </i>
    <i name="ewald"> -31692.48126868 </i>
    <i name="hartreedc"> -12770.95684727 </i>
    <i name="XCdc">   1569.56918859 </i>
    <i name="pawpsdc">  44406.85867147 </i>
    <i name="pawaedc"> -44053.92138232 </i>
    <i name="eentropy">      0.00000000 </i>
    <i name="bandstr">  -4432.17526226 </i>
    <i name="atom">  45556.09114881 </i>
    <i name="e_fr_energy">   -305.80997214 </i>
    <i name="e_wo_entrp">   -305.80997214 </i>
    <i name="e_0_energy">   -305.80997214 </i>
   </energy>
  </scstep>
  <scstep>
   <time name="dav">   76.28   76.28</time>
   <time name="total">   77.07   77.07</time>
   <energy>
    <i name="e_fr_energy">   -306.36860404 </i>
    <i name="e_wo_entrp">   -306.36860404 </i>
    <i name="e_0_energy">   -306.36860404 </i>
   </energy>
  </scstep>
  <scstep>
   <time name="dav">   97.93   98.27</time>
   <time name="total">   98.72   99.06</time>
   <energy>
    <i name="e_fr_energy">   -306.33988721 </i>
    <i name="e_wo_entrp">   -306.33988721 </i>
    <i name="e_0_energy">   -306.33988721 </i>
   </energy>
  </scstep>
  <scstep>
   <time name="dav">   77.45   77.52</time>
   <time name="total">   78.24   78.32</time>
   <energy>
    <i name="e_fr_energy">   -306.31953727 </i>
    <i name="e_wo_entrp">   -306.31953727 </i>
    <i name="e_0_energy">   -306.31953727 </i>
   </energy>
  </scstep>
  <scstep>
   <time name="dav">   84.92   85.63</time>
   <time name="total">   85.71   86.43</time>
   <energy>
    <i name="e_fr_energy">   -306.31746214 </i>
    <i name="e_wo_entrp">   -306.31746214 </i>
    <i name="e_0_energy">   -306.31746214 </i>
   </energy>
  </scstep>
  <scstep>
   <time name="dav">   86.02   86.59</time>
   <time name="total">   86.81   87.39</time>
   <energy>
    <i name="e_fr_energy">   -306.31758843 </i>
    <i name="e_wo_entrp">   -306.31758843 </i>
    <i name="e_0_energy">   -306.31758843 </i>
   </energy>
  </scstep>
  <scstep>
   <time name="dav">   82.17   82.17</time>
   <time name="total">   82.98   82.98</time>
   <energy>
    <i name="e_fr_energy">   -306.31750508 </i>
    <i name="e_wo_entrp">   -306.31750508 </i>
    <i name="e_0_energy">   -306.31750508 </i>
   </energy>
  </scstep>
  <scstep>
   <time name="dav">   85.23   85.45</time>
   <time name="total">   86.02   86.24</time>
   <energy>
    <i name="e_fr_energy">   -306.31748092 </i>
    <i name="e_wo_entrp">   -306.31748092 </i>
    <i name="e_0_energy">   -306.31748092 </i>
   </energy>
  </scstep>
  <scstep>
   <time name="dav">   83.68   84.71</time>
   <time name="total">   84.43   85.52</time>
   <energy>
    <i name="e_fr_energy">   -306.31749256 </i>
    <i name="e_wo_entrp">   -306.31749256 </i>
    <i name="e_0_energy">   -306.31749256 </i>
   </energy>
  </scstep>
  <scstep>
   <time name="dav">   83.42   83.55</time>
   <time name="total">   84.21   84.34</time>
   <energy>
    <i name="e_fr_energy">   -306.31749472 </i>
    <i name="e_wo_entrp">   -306.31749472 </i>
    <i name="e_0_energy">   -306.31749472 </i>
   </energy>
  </scstep>
  <scstep>
   <time name="dav">   62.80   62.90</time>
   <time name="total">   63.59   63.70</time>
   <energy>
    <i name="e_fr_energy">   -306.31749638 </i>
    <i name="e_wo_entrp">   -306.31749638 </i>
    <i name="e_0_energy">   -306.31749638 </i>
   </energy>
  </scstep>
  <scstep>
   <time name="dav">   53.59   53.70</time>
   <time name="total">   53.67   53.77</time>
   <energy>
    <i name="alphaZ">   1111.20577952 </i>
    <i name="ewald"> -31692.48126868 </i>
    <i name="hartreedc"> -12727.12055050 </i>
    <i name="XCdc">   1567.40914792 </i>
    <i name="pawpsdc">  44316.74095043 </i>
    <i name="pawaedc"> -43961.92946973 </i>
    <i name="eentropy">      0.00000000 </i>
    <i name="bandstr">  -4476.23323506 </i>
    <i name="atom">  45556.09114881 </i>
    <i name="e_fr_energy">   -306.31749730 </i>
    <i name="e_wo_entrp">   -306.31749730 </i>
    <i name="e_0_energy">   -306.31749730 </i>
   </energy>
  </scstep>
  <structure>
   <crystal>
    <varray name="basis" >
     <v>      11.10598954      -0.00083946       0.00022202 </v>
     <v>      -0.00071820       9.47705759      -0.00058408 </v>
     <v>       0.00022207      -0.00068966      11.11513181 </v>
    </varray>
    <i name="volume">   1169.89098040 </i>
    <varray name="rec_basis" >
     <v>       0.09004150       0.00000682      -0.00000180 </v>
     <v>       0.00000798       0.10551798       0.00000655 </v>
     <v>      -0.00000180       0.00000554       0.08996744 </v>
    </varray>
   </crystal>
   <varray name="positions" >
    <v>       0.12383455       0.99917970       0.19086510 </v>
    <v>       0.37313039       0.00081740       0.18412503 </v>
    <v>       0.62956037       0.99982990       0.43693777 </v>
    <v>       0.88015450       0.00015687       0.43692625 </v>
    <v>       0.62551666       0.00052975       0.18634617 </v>
    <v>       0.87632810      -0.00046386       0.18819788 </v>
    <v>       0.12491757       0.99983822       0.93693270 </v>
    <v>       0.37508747       0.00015903       0.93693252 </v>
    <v>       0.12384030       0.00048766       0.68298542 </v>
    <v>       0.37313733      -0.00049030       0.68976246 </v>
    <v>       0.62566737       0.99983517       0.93693334 </v>
    <v>       0.87555562       0.00016181       0.93693206 </v>
    <v>       0.62551461       0.99914722       0.68751192 </v>
    <v>       0.87631475       0.00076497       0.68568311 </v>
    <v>       0.36688896       0.00006847       0.43720945 </v>
    <v>      -0.00006690       0.29686544       0.06291769 </v>
    <v>       0.24888771       0.70330121       0.06253363 </v>
    <v>       0.24642589       0.29661746       0.31302387 </v>
    <v>       0.50081723       0.69708138       0.31175774 </v>
    <v>       0.50010746       0.29648083       0.06239554 </v>
    <v>       0.75136547       0.70344580       0.06279823 </v>
    <v>       0.75173011       0.29669207       0.31273127 </v>
    <v>       0.00075739       0.70724859       0.31405117 </v>
    <v>       0.00087387       0.29282096       0.56150702 </v>
    <v>       0.24662445       0.70340032       0.56251082 </v>
    <v>       0.24875215       0.29669797       0.81301632 </v>
    <v>       0.49996081       0.70352132       0.81314932 </v>
    <v>       0.50094734       0.30285107       0.56379947 </v>
    <v>       0.75186463       0.70331284       0.56281150 </v>
    <v>       0.75121577       0.29655668       0.81276093 </v>
    <v>       0.99979075       0.70313148       0.81263859 </v>
    <v>       0.25066265       0.32904385       0.06283596 </v>
    <v>       0.00010598       0.67052790       0.06195914 </v>
    <v>       0.49960222       0.32861115       0.31391693 </v>
    <v>       0.25265314       0.67179246       0.31318626 </v>
    <v>       0.74938410       0.32900109       0.06285049 </v>
[...]
       <r>   11.7110    0.0000 </r>
       <r>   11.7443    0.0000 </r>
      </set>
     </set>
    </set>
   </array>
  </eigenvalues>
  <separator name="orbital magnetization" >
   <v name="MAGDIPOLOUT">      0.00000000      0.00000000      0.00000000</v>
  </separator>
  <dos>
   <i name="efermi">      4.71976748 </i>
   <total>
    <array>
     <dimension dim="1">gridpoints</dimension>
     <dimension dim="2">spin</dimension>
     <field>energy</field>
     <field>total</field>
     <field>integrated</field>
     <set>
      <set comment="spin 1">
       <r>   -42.1444     0.0000     0.0000 </r>
       <r>   -41.9533     0.0000     0.0000 </r>
       <r>   -41.7622     0.0000     0.0000 </r>
       <r>   -41.5711     0.0000     0.0000 </r>
       <r>   -41.3800     0.0000     0.0000 </r>
       <r>   -41.1889     0.0000     0.0000 </r>
       <r>   -40.9979     0.0000     0.0000 </r>
       <r>   -40.8068     0.0000     0.0000 </r>
       <r>   -40.6157     0.0000     0.0000 </r>
       <r>   -40.4246     0.0000     0.0000 </r>
       <r>   -40.2335     0.0000     0.0000 </r>
       <r>   -40.0424     0.0000     0.0000 </r>
       <r>   -39.8513     0.0000     0.0000 </r>
       <r>   -39.6602     0.0000     0.0000 </r>
       <r>   -39.4692     0.0000     8.0000 </r>
       <r>   -39.2781     0.0000    18.0000 </r>
       <r>   -39.0870     0.0000    24.0000 </r>
       <r>   -38.8959     0.0000    28.0000 </r>
       <r>   -38.7048     0.0000    28.0000 </r>
       <r>   -38.5137     0.0000    28.0000 </r>
       <r>   -38.3226     0.0000    28.0000 </r>
       <r>   -38.1316     0.0000    28.0000 </r>
       <r>   -37.9405     0.0000    28.0000 </r>
       <r>   -37.7494     0.0000    28.0000 </r>
       <r>   -37.5583     0.0000    28.0000 </r>
       <r>   -37.3672     0.0000    28.0000 </r>
       <r>   -37.1761     0.0000    28.0000 </r>
       <r>   -36.9850     0.0000    28.0000 </r>
       <r>   -36.7939     0.0000    28.0000 </r>
       <r>   -36.6029     0.0000    28.0000 </r>
       <r>   -36.4118     0.0000    28.0000 </r>
       <r>   -36.2207     0.0000    28.0000 </r>
       <r>   -36.0296     0.0000    28.0000 </r>
       <r>   -35.8385     0.0000    28.0000 </r>
       <r>   -35.6474     0.0000    28.0000 </r>
       <r>   -35.4563     0.0000    28.0000 </r>
       <r>   -35.2652     0.0000    28.0000 </r>
       <r>   -35.0742     0.0000    28.0000 </r>
       <r>   -34.8831     0.0000    28.0000 </r>
       <r>   -34.6920     0.0000    28.0000 </r>
       <r>   -34.5009     0.0000    28.0000 </r>
       <r>   -34.3098     0.0000    28.0000 </r>
       <r>   -34.1187     0.0000    28.0000 </r>
       <r>   -33.9276     0.0000    28.0000 </r>
       <r>   -33.7365     0.0000    28.0000 </r>
       <r>   -33.5455     0.0000    28.0000 </r>
       <r>   -33.3544     0.0000    28.0000 </r>
       <r>   -33.1633     0.0000    28.0000 </r>
       <r>   -32.9722     0.0000    28.0000 </r>
       <r>   -32.7811     0.0000    28.0000 </r>
       <r>   -32.5900     0.0000    28.0000 </r>
       <r>   -32.3989     0.0000    28.0000 </r>
       <r>   -32.2078     0.0000    28.0000 </r>
       <r>   -32.0168     0.0000    28.0000 </r>
       <r>   -31.8257     0.0000    28.0000 </r>
       <r>   -31.6346     0.0000    28.0000 </r>
       <r>   -31.4435     0.0000    28.0000 </r>
       <r>   -31.2524     0.0000    28.0000 </r>
       <r>   -31.0613     0.0000    28.0000 </r>
       <r>   -30.8702     0.0000    28.0000 </r>
       <r>   -30.6791     0.0000    28.0000 </r>
       <r>   -30.4881     0.0000    28.0000 </r>
       <r>   -30.2970     0.0000    28.0000 </r>
       <r>   -30.1059     0.0000    28.0000 </r>
       <r>   -29.9148     0.0000    28.0000 </r>
       <r>   -29.7237     0.0000    28.0000 </r>
       <r>   -29.5326     0.0000    28.0000 </r>
       <r>   -29.3415     0.0000    28.0000 </r>
       <r>   -29.1504     0.0000    28.0000 </r>
       <r>   -28.9594     0.0000    28.0000 </r>
       <r>   -28.7683     0.0000    28.0000 </r>
       <r>   -28.5772     0.0000    28.0000 </r>
       <r>   -28.3861     0.0000    28.0000 </r>
       <r>   -28.1950     0.0000    28.0000 </r>
       <r>   -28.0039     0.0000    28.0000 </r>
       <r>   -27.8128     0.0000    28.0000 </r>
       <r>   -27.6218     0.0000    28.0000 </r>
       <r>   -27.4307     0.0000    28.0000 </r>
       <r>   -27.2396     0.0000    28.0000 </r>
       <r>   -27.0485     0.0000    28.0000 </r>
       <r>   -26.8574     0.0000    28.0000 </r>
       <r>   -26.6663     0.0000    28.0000 </r>
       <r>   -26.4752     0.0000    28.0000 </r>
       <r>   -26.2841     0.0000    28.0000 </r>
       <r>   -26.0931     0.0000    28.0000 </r>
       <r>   -25.9020     0.0000    28.0000 </r>
       <r>   -25.7109     0.0000    28.0000 </r>
       <r>   -25.5198     0.0000    28.0000 </r>
       <r>   -25.3287     0.0000    28.0000 </r>
       <r>   -25.1376     0.0000    28.0000 </r>
       <r>   -24.9465     0.0000    28.0000 </r>
       <r>   -24.7554     0.0000    28.0000 </r>
       <r>   -24.5644     0.0000    28.0000 </r>
       <r>   -24.3733     0.0000    28.0000 </r>
       <r>   -24.1822     0.0000    28.0000 </r>
       <r>   -23.9911     0.0000    28.0000 </r>
       <r>   -23.8000     0.0000    28.0000 </r>
       <r>   -23.6089     0.0000    28.0000 </r>
       <r>   -23.4178     0.0000    28.0000 </r>
       <r>   -23.2267     0.0000    28.0000 </r>
       <r>   -23.0357     0.0000    28.0000 </r>
       <r>   -22.8446     0.0000    28.0000 </r>
       <r>   -22.6535     0.0000    28.0000 </r>
       <r>   -22.4624     0.0000    28.0000 </r>
       <r>   -22.2713     0.0000    28.0000 </r>
       <r>   -22.0802     0.0000    28.0000 </r>
       <r>   -21.8891     0.0000    28.0000 </r>
       <r>   -21.6980     0.0000    28.0000 </r>
       <r>   -21.5070     0.0000    28.0000 </r>
       <r>   -21.3159     0.0000    28.0000 </r>
       <r>   -21.1248     0.0000    28.0000 </r>
       <r>   -20.9337     0.0000    28.0000 </r>
       <r>   -20.7426     0.0000    28.0000 </r>
       <r>   -20.5515     0.0000    28.0000 </r>
       <r>   -20.3604     0.0000    28.0000 </r>
       <r>   -20.1693     0.0000    28.0000 </r>
       <r>   -19.9783     0.0000    28.0000 </r>
       <r>   -19.7872     0.0000    28.0000 </r>
       <r>   -19.5961     0.0000    28.0000 </r>
       <r>   -19.4050     0.0000    28.0000 </r>
       <r>   -19.2139     0.0000    28.0000 </r>
       <r>   -19.0228     0.0000    28.0000 </r>
       <r>   -18.8317     0.0000    28.0000 </r>
       <r>   -18.6406     0.0000    28.0000 </r>
       <r>   -18.4496     0.0000    28.0000 </r>
       <r>   -18.2585   455.0954    87.8002 </r>
       <r>   -18.0674     0.0000   172.0000 </r>
       <r>   -17.8763     0.0000   188.0000 </r>
       <r>   -17.6852     0.0000   188.0000 </r>
       <r>   -17.4941     0.0000   188.0000 </r>
       <r>   -17.3030     0.0000   188.0000 </r>
       <r>   -17.1120     0.0000   188.0000 </r>
       <r>   -16.9209     0.0000   188.0000 </r>
       <r>   -16.7298     0.0000   188.0000 </r>
       <r>   -16.5387     0.0000   188.0000 </r>
       <r>   -16.3476     0.0000   188.0000 </r>
       <r>   -16.1565     0.0000   188.0000 </r>
       <r>   -15.9654     0.0000   188.0000 </r>
       <r>   -15.7743     0.0000   188.0000 </r>
       <r>   -15.5833     0.0000   188.0000 </r>
       <r>   -15.3922     0.0000   188.0000 </r>
       <r>   -15.2011     0.0000   188.0000 </r>
       <r>   -15.0100     0.0000   188.0000 </r>
       <r>   -14.8189     0.0000   188.0000 </r>
       <r>   -14.6278     0.0000   188.0000 </r>
       <r>   -14.4367     0.0000   188.0000 </r>
       <r>   -14.2456     0.0000   188.0000 </r>
       <r>   -14.0546     0.0000   188.0000 </r>
       <r>   -13.8635     0.0000   188.0000 </r>
       <r>   -13.6724     0.0000   188.0000 </r>
       <r>   -13.4813     0.0000   188.0000 </r>
       <r>   -13.2902     0.0000   188.0000 </r>
       <r>   -13.0991     0.0000   188.0000 </r>
       <r>   -12.9080     0.0000   188.0000 </r>
       <r>   -12.7169     0.0000   188.0000 </r>
       <r>   -12.5259     0.0000   192.0000 </r>
       <r>   -12.3348   165.9517   200.8281 </r>
       <r>   -12.1437     0.0000   218.0000 </r>
       <r>   -11.9526     0.0000   220.0000 </r>
       <r>   -11.7615     0.0000   220.0000 </r>
       <r>   -11.5704     0.0000   220.0000 </r>
       <r>   -11.3793     0.0000   220.0000 </r>
       <r>   -11.1882     0.0000   220.0000 </r>
       <r>   -10.9972     0.0000   220.0000 </r>
       <r>   -10.8061     0.0000   220.0000 </r>
       <r>   -10.6150     0.0000   220.0000 </r>
       <r>   -10.4239     0.0000   220.0000 </r>
       <r>   -10.2328     0.0000   220.0000 </r>
       <r>   -10.0417     0.0000   220.0000 </r>
       <r>    -9.8506     0.0000   220.0000 </r>
       <r>    -9.6595     0.0000   220.0000 </r>
       <r>    -9.4685     0.0000   220.0000 </r>
       <r>    -9.2774     0.0000   220.0000 </r>
       <r>    -9.0863     5.8120   220.2793 </r>
       <r>    -8.8952    13.8439   222.2618 </r>
       <r>    -8.7041     4.3208   223.9499 </r>
       <r>    -8.5130    15.8070   225.5912 </r>
       <r>    -8.3219     7.5282   228.0579 </r>
       <r>    -8.1309    20.6168   233.8023 </r>
       <r>    -7.9398     2.7458   235.9516 </r>
       <r>    -7.7487    35.4911   239.9900 </r>
       <r>    -7.5576    24.0594   245.6798 </r>
       <r>    -7.3665    12.2470   248.5605 </r>
       <r>    -7.1754     8.0951   251.7828 </r>
       <r>    -6.9843     0.0000   252.0000 </r>
       <r>    -6.7932     0.0000   252.0000 </r>
       <r>    -6.6022     0.0000   252.0000 </r>
       <r>    -6.4111     0.0000   252.0000 </r>
       <r>    -6.2200     0.0000   252.0000 </r>
       <r>    -6.0289     0.0046   252.0000 </r>
       <r>    -5.8378    20.0856   253.7750 </r>
       <r>    -5.6467    42.6222   259.5032 </r>
       <r>    -5.4556    25.1933   261.6384 </r>
       <r>    -5.2645    32.8519   267.0397 </r>
       <r>    -5.0735    22.5025   271.8472 </r>
       <r>    -4.8824    10.5221   274.9136 </r>
       <r>    -4.6913     1.0646   276.0194 </r>
       <r>    -4.5002     9.6650   277.0357 </r>
       <r>    -4.3091    14.1987   279.4437 </r>
       <r>    -4.1180     3.9355   280.5426 </r>
       <r>    -3.9269     6.6697   281.5560 </r>
       <r>    -3.7358     6.3539   283.1405 </r>
       <r>    -3.5448     1.8488   283.7268 </r>
       <r>    -3.3537     0.6471   283.9653 </r>
       <r>    -3.1626     0.0000   284.0000 </r>
       <r>    -2.9715     0.0000   284.0000 </r>
       <r>    -2.7804     0.0000   284.0000 </r>
       <r>    -2.5893     0.0000   284.0000 </r>
       <r>    -2.3982     0.0000   284.0000 </r>
       <r>    -2.2071     0.0000   284.0000 </r>
       <r>    -2.0161     0.0000   284.0000 </r>
       <r>    -1.8250     0.0000   284.0000 </r>
       <r>    -1.6339     0.0000   284.0000 </r>
       <r>    -1.4428     0.0000   284.0000 </r>
       <r>    -1.2517     0.0000   284.0000 </r>
       <r>    -1.0606     2.1989   284.0583 </r>
       <r>    -0.8695     7.9852   285.2767 </r>
       <r>    -0.6784     5.0094   286.3715 </r>
       <r>    -0.4874    13.3764   288.0792 </r>
       <r>    -0.2963     8.7349   290.2631 </r>
       <r>    -0.1052    14.5040   292.0326 </r>
       <r>     0.0859    26.3371   296.1472 </r>
       <r>     0.2770    42.9746   301.3896 </r>
       <r>     0.4681    33.9567   309.5807 </r>
       <r>     0.6592    42.6519   316.9027 </r>
       <r>     0.8503    23.2548   324.3853 </r>
       <r>     1.0413    32.5980   330.4126 </r>
       <r>     1.2324    35.8544   335.5568 </r>
       <r>     1.4235    65.2962   343.1305 </r>
       <r>     1.6146    49.1863   352.2578 </r>
       <r>     1.8057    42.0790   359.9542 </r>
       <r>     1.9968    63.5650   369.2226 </r>
       <r>     2.1879    71.8108   382.8343 </r>
       <r>     2.3789    33.6398   394.0314 </r>
       <r>     2.5700    24.5290   399.4866 </r>
       <r>     2.7611    68.0887   407.5137 </r>
       <r>     2.9522    66.8490   422.7006 </r>
       <r>     3.1433    66.9920   434.5792 </r>
       <r>     3.3344    48.1575   449.0540 </r>
       <r>     3.5255    24.2774   458.6363 </r>
       <r>     3.7166    24.5644   462.7895 </r>
       <r>     3.9076    18.7344   470.0875 </r>
       <r>     4.0987    12.2902   472.9581 </r>
       <r>     4.2898     7.5301   474.8516 </r>
       <r>     4.4809     2.7824   475.8367 </r>
       <r>     4.6720     0.0000   476.0000 </r>
       <r>     4.8631     0.0000   476.0000 </r>
       <r>     5.0542     0.0000   476.0000 </r>
       <r>     5.2453     0.0000   476.0000 </r>
       <r>     5.4363     0.0000   476.0000 </r>
       <r>     5.6274     1.6592   476.0559 </r>
       <r>     5.8185     7.1661   476.8995 </r>
       <r>     6.0096    10.8685   478.7466 </r>
       <r>     6.2007    33.7290   481.2775 </r>
       <r>     6.3918    13.8818   485.1808 </r>
       <r>     6.5829    12.5797   487.6758 </r>
       <r>     6.7740    12.7578   490.0417 </r>
       <r>     6.9650    14.6581   492.6612 </r>
       <r>     7.1561    16.6076   495.6449 </r>
       <r>     7.3472    19.7900   499.0967 </r>
       <r>     7.5383    28.5142   503.6405 </r>
       <r>     7.7294    44.8544   510.1924 </r>
       <r>     7.9205    20.9433   517.6595 </r>
       <r>     8.1116    29.8786   522.7686 </r>
       <r>     8.3027    28.8710   528.1437 </r>
       <r>     8.4937    44.0192   535.3732 </r>
       <r>     8.6848    23.9712   542.5118 </r>
       <r>     8.8759    13.9339   545.7029 </r>
       <r>     9.0670    41.8442   550.5736 </r>
       <r>     9.2581    32.0089   558.0058 </r>
       <r>     9.4492    30.8205   564.0827 </r>
       <r>     9.6403    23.7257   570.2697 </r>
       <r>     9.8314     0.1281   571.9994 </r>
       <r>    10.0224     0.0000   572.0000 </r>
       <r>    10.2135    12.5315   573.0929 </r>
       <r>    10.4046     7.9515   575.3919 </r>
       <r>    10.5957    18.6341   577.6284 </r>
       <r>    10.7868    16.5221   581.4042 </r>
       <r>    10.9779    31.2739   585.7775 </r>
       <r>    11.1690    38.5280   594.5357 </r>
       <r>    11.3600    24.5013   601.1574 </r>
       <r>    11.5511    18.8943   605.2870 </r>
       <r>    11.7422    17.6323   609.3756 </r>
       <r>    11.9333    14.7596   612.8086 </r>
       <r>    12.1244     7.5391   614.8886 </r>
       <r>    12.3155     2.3973   615.8092 </r>
       <r>    12.5066     0.1190   615.9974 </r>
       <r>    12.6977     0.0000   616.0000 </r>
       <r>    12.8887     0.0000   616.0000 </r>
       <r>    13.0798     0.0000   616.0000 </r>
       <r>    13.2709     0.0000   616.0000 </r>
       <r>    13.4620     0.0000   616.0000 </r>
       <r>    13.6531     0.0000   616.0000 </r>
       <r>    13.8442     0.0000   616.0000 </r>
       <r>    14.0353     0.0000   616.0000 </r>
       <r>    14.2264     0.0000   616.0000 </r>
       <r>    14.4174     0.0000   616.0000 </r>
       <r>    14.6085     0.0000   616.0000 </r>
       <r>    14.7996     0.0000   616.0000 </r>
       <r>    14.9907     0.0000   616.0000 </r>
       <r>    15.1818     0.0000   616.0000 </r>
      </set>
     </set>
    </array>
   </total>
  </dos>
 </calculation>
 <structure name="finalpos" >
  <crystal>
   <varray name="basis" >
    <v>      11.11893909      -0.00052323      -0.00004015 </v>
    <v>      -0.00046732       9.40261635      -0.01324578 </v>
    <v>      -0.00004146      -0.01600459      11.11766760 </v>
   </varray>
   <i name="volume">   1162.31775107 </i>
   <varray name="rec_basis" >
    <v>       0.08993664       0.00000447       0.00000034 </v>
    <v>       0.00000501       0.10635359       0.00015310 </v>
    <v>       0.00000033       0.00012671       0.08994711 </v>
   </varray>
  </crystal>
  <varray name="positions" >
   <v>       0.12500431       0.00097982       0.20085563 </v>
   <v>       0.37531277       0.00160988       0.17977633 </v>
   <v>       0.63080526       0.99990416       0.43738172 </v>
   <v>       0.89004246       0.00018214       0.43730346 </v>
   <v>       0.62625635       0.00132309       0.18809260 </v>
   <v>       0.87415926       0.00093746       0.18449083 </v>
   <v>       0.12296455       0.00001790       0.93735874 </v>
   <v>       0.37232815      -0.00000937       0.93741777 </v>
   <v>       0.12503995      -0.00097183       0.67370601 </v>
   <v>       0.37534794      -0.00157090       0.69508837 </v>
   <v>       0.62673036      -0.00000392       0.93739183 </v>
   <v>       0.87777208       0.00002044       0.93736635 </v>
   <v>       0.62618366       0.99869825       0.68665329 </v>
   <v>       0.87409551      -0.00091011       0.69026312 </v>
   <v>       0.36866081      -0.00007778       0.43746234 </v>
   <v>      -0.00061154       0.30088641       0.06208568 </v>
   <v>       0.24909433       0.70067486       0.06216970 </v>
   <v>       0.24983029       0.30609838       0.31085999 </v>
   <v>       0.49986728       0.69212636       0.31300593 </v>
   <v>       0.50019776       0.29977848       0.06206070 </v>
   <v>       0.75079674       0.70058242       0.06249331 </v>
   <v>       0.75015005       0.30052287       0.31222272 </v>
   <v>      -0.00230812       0.70402160       0.31108530 </v>
   <v>      -0.00231315       0.29612760       0.56400560 </v>
   <v>       0.24984151       0.69380822       0.56426948 </v>
   <v>       0.24911061       0.29933266       0.81294167 </v>
   <v>       0.50018888       0.70023005       0.81303123 </v>
   <v>       0.49985026       0.30778979       0.56209398 </v>
   <v>       0.75013627       0.69947433       0.56284920 </v>
   <v>       0.75079221       0.29943391       0.81257378 </v>
   <v>       0.99937000       0.69913963       0.81299672 </v>
   <v>       0.25063139       0.34651606       0.06199691 </v>
   <v>       0.00011818       0.65176452       0.06284313 </v>
   <v>       0.49920163       0.35117980       0.31277551 </v>
   <v>       0.25106785       0.66357087       0.31400526 </v>
   <v>       0.74916087       0.34518453       0.06222512 </v>
   <v>       0.49994888       0.65803128       0.06258398 </v>
   <v>       0.99942236       0.33431094       0.31218256 </v>
   <v>       0.74930825       0.65404855       0.31294904 </v>
   <v>       0.25103347       0.33643101       0.56133432 </v>
   <v>      -0.00052937       0.66573236       0.56310766 </v>
   <v>       0.49991591       0.34203135       0.81273055 </v>
   <v>       0.25065114       0.65352146       0.81333850 </v>
   <v>       0.74925905       0.34594575       0.56236793 </v>
   <v>       0.49924341       0.64874543       0.56255737 </v>
   <v>       0.00008743       0.34818611       0.81245260 </v>
   <v>       0.74918005       0.65478565       0.81308693 </v>
   <v>       0.50072537       0.07733798       0.06350264 </v>
   <v>      -0.01281833       0.92076104       0.29843583 </v>
   <v>       0.25004971       0.92236295       0.06148000 </v>
   <v>       0.26983150       0.08481579       0.30438762 </v>
   <v>      -0.00055416       0.07975925       0.05946358 </v>
   <v>       0.49476616       0.91807633       0.32101127 </v>
   <v>       0.74944513       0.92248892       0.06182353 </v>
   <v>       0.74479073       0.07907089       0.31120064 </v>
   <v>       0.49469523       0.08184477       0.55401895 </v>
   <v>      -0.00060851       0.92026110       0.81542142 </v>
   <v>       0.26978716       0.91512293       0.57056890 </v>
   <v>       0.25009350       0.07765543       0.81346694 </v>
   <v>       0.98716932       0.07935611       0.57639616 </v>
   <v>       0.50070434       0.92267056       0.81143971 </v>
   <v>       0.74471507       0.92091333       0.56372685 </v>
   <v>       0.74942048       0.07753016       0.81305515 </v>
  </varray>
 </structure>
</modeling>
