<?xml version="1.0" encoding="ISO-8859-1"?>
<modeling>
 <generator>
  <i name="program" type="string">vasp </i>
  <i name="version" type="string">5.4.4.18Apr17-6-g9f103f2a35  </i>
  <i name="subversion" type="string">(build Jul 31 2017 11:33:29) complex            parallel </i>
  <i name="platform" type="string">LinuxIFC </i>
  <i name="date" type="string">2021 09 29 </i>
  <i name="time" type="string">17:17:32 </i>
 </generator>
 <incar>
  <i type="string" name="SYSTEM"> La2O2S</i>
  <i type="string" name="PREC">normal</i>
  <i type="int" name="NELMIN">     4</i>
  <i type="int" name="IBRION">     2</i>
  <i type="int" name="NFREE">    10</i>
  <i name="EDIFF">      0.00000100</i>
  <i name="EDIFFG">     -0.01000000</i>
  <i type="int" name="NSW">     1</i>
  <i type="int" name="ISIF">     2</i>
  <i name="ENCUT">    600.00000000</i>
  <i name="ENAUG">    900.00000000</i>
  <i type="int" name="ISMEAR">    -5</i>
  <i type="logical" name="LWAVE"> F  </i>
  <i type="logical" name="LCHARG"> F  </i>
  <v type="int" name="KPOINT_BSE">    -1     0     0     0</v>
 </incar>
 <structure name="primitive_cell" >
  <crystal>
   <varray name="basis" >
    <v>      11.17850000       0.00000000       0.00000000 </v>
    <v>       0.00000000       9.57460000       0.00000000 </v>
    <v>       0.00000000       0.00000000      11.18240000 </v>
   </varray>
   <i name="volume">   1196.84853820 </i>
   <varray name="rec_basis" >
    <v>       0.08945744       0.00000000       0.00000000 </v>
    <v>       0.00000000       0.10444301       0.00000000 </v>
    <v>       0.00000000       0.00000000       0.08942624 </v>
   </varray>
  </crystal>
  <varray name="positions" >
   <v>       0.37539000       0.00017000       0.43687000 </v>
   <v>      -0.49987000      -0.07798000       0.31246000 </v>
   <v>       0.25013000       0.07798000       0.31246000 </v>
   <v>       0.49987000       0.07798000      -0.43754000 </v>
   <v>       0.24987000      -0.07798000      -0.43754000 </v>
   <v>      -0.37461000      -0.00016000       0.43687000 </v>
   <v>       0.37461000       0.00017000       0.18687000 </v>
   <v>       0.49987000      -0.29519000       0.31282000 </v>
   <v>       0.24987000       0.29519000       0.31282000 </v>
   <v>      -0.49987000       0.29519000      -0.43719000 </v>
   <v>       0.25013000      -0.29519000      -0.43719000 </v>
   <v>       0.49995000       0.32677000       0.31286000 </v>
   <v>       0.24995000      -0.32677000       0.31286000 </v>
   <v>      -0.49995000      -0.32677000      -0.43714000 </v>
   <v>       0.25005000       0.32677000      -0.43714000 </v>
   <v>      -0.37539000      -0.00016000       0.18687000 </v>
   <v>      -0.37539000      -0.00016000      -0.31313000 </v>
   <v>       0.12461000      -0.00016000       0.18687000 </v>
   <v>       0.12461000      -0.00016000      -0.31313000 </v>
   <v>       0.49987000       0.07798000       0.06246000 </v>
   <v>      -0.24987000       0.07798000       0.31246000 </v>
   <v>      -0.25013000      -0.07798000      -0.43754000 </v>
   <v>       0.24987000      -0.07798000       0.06246000 </v>
   <v>       0.00013000      -0.07798000       0.31246000 </v>
   <v>      -0.49987000      -0.07798000      -0.18754000 </v>
   <v>      -0.00013000       0.07798000      -0.43754000 </v>
   <v>       0.25013000       0.07798000      -0.18754000 </v>
   <v>      -0.49987000       0.29519000       0.06281000 </v>
   <v>      -0.25013000       0.29519000       0.31282000 </v>
   <v>       0.25013000      -0.29519000       0.06281000 </v>
   <v>      -0.24987000      -0.29519000      -0.43719000 </v>
   <v>      -0.00013000      -0.29519000       0.31282000 </v>
   <v>       0.00013000       0.29519000      -0.43719000 </v>
   <v>       0.49987000      -0.29519000      -0.18718000 </v>
   <v>       0.24987000       0.29519000      -0.18718000 </v>
   <v>      -0.49995000      -0.32677000       0.06286000 </v>
   <v>       0.25005000       0.32677000       0.06286000 </v>
   <v>      -0.25005000      -0.32677000       0.31286000 </v>
   <v>      -0.24995000       0.32677000      -0.43714000 </v>
   <v>      -0.00005000       0.32677000       0.31286000 </v>
   <v>       0.00005000      -0.32677000      -0.43714000 </v>
   <v>       0.49995000       0.32677000      -0.18714000 </v>
   <v>       0.24995000      -0.32677000      -0.18714000 </v>
   <v>      -0.12461000       0.00017000       0.43687000 </v>
   <v>       0.37539000       0.00017000      -0.06313000 </v>
   <v>      -0.25013000      -0.07798000       0.06246000 </v>
   <v>      -0.00013000       0.07798000       0.06246000 </v>
   <v>      -0.24987000       0.07798000      -0.18754000 </v>
   <v>       0.00013000      -0.07798000      -0.18754000 </v>
   <v>      -0.12539000       0.00017000       0.18687000 </v>
   <v>      -0.12539000       0.00017000      -0.31313000 </v>
   <v>      -0.24987000      -0.29519000       0.06281000 </v>
   <v>       0.00013000       0.29519000       0.06281000 </v>
   <v>      -0.25013000       0.29519000      -0.18718000 </v>
   <v>      -0.00013000      -0.29519000      -0.18718000 </v>
   <v>      -0.24995000       0.32677000       0.06286000 </v>
   <v>       0.00005000      -0.32677000       0.06286000 </v>
   <v>      -0.25005000      -0.32677000      -0.18714000 </v>
   <v>      -0.00005000       0.32677000      -0.18714000 </v>
   <v>      -0.12461000       0.00017000      -0.06313000 </v>
  </varray>
 </structure>
 <varray name="primitive_index" >
  <v type="int" >        1 </v>
  <v type="int" >       52 </v>
  <v type="int" >       47 </v>
  <v type="int" >       53 </v>
  <v type="int" >       54 </v>
  <v type="int" >        4 </v>
  <v type="int" >        3 </v>
  <v type="int" >       16 </v>
  <v type="int" >       15 </v>
  <v type="int" >       25 </v>
  <v type="int" >       22 </v>
  <v type="int" >       31 </v>
  <v type="int" >       32 </v>
  <v type="int" >       42 </v>
  <v type="int" >       37 </v>
  <v type="int" >        6 </v>
  <v type="int" >       12 </v>
  <v type="int" >        2 </v>
  <v type="int" >       10 </v>
  <v type="int" >       45 </v>
  <v type="int" >       51 </v>
  <v type="int" >       58 </v>
  <v type="int" >       46 </v>
  <v type="int" >       48 </v>
  <v type="int" >       60 </v>
  <v type="int" >       57 </v>
  <v type="int" >       55 </v>
  <v type="int" >       17 </v>
  <v type="int" >       19 </v>
  <v type="int" >       14 </v>
  <v type="int" >       26 </v>
  <v type="int" >       20 </v>
  <v type="int" >       21 </v>
  <v type="int" >       24 </v>
  <v type="int" >       23 </v>
  <v type="int" >       34 </v>
  <v type="int" >       29 </v>
  <v type="int" >       36 </v>
  <v type="int" >       41 </v>
  <v type="int" >       35 </v>
  <v type="int" >       38 </v>
  <v type="int" >       39 </v>
  <v type="int" >       40 </v>
  <v type="int" >        5 </v>
  <v type="int" >        9 </v>
  <v type="int" >       50 </v>
  <v type="int" >       49 </v>
  <v type="int" >       59 </v>
  <v type="int" >       56 </v>
  <v type="int" >        7 </v>
  <v type="int" >        8 </v>
  <v type="int" >       18 </v>
  <v type="int" >       13 </v>
  <v type="int" >       27 </v>
  <v type="int" >       28 </v>
  <v type="int" >       33 </v>
  <v type="int" >       30 </v>
  <v type="int" >       44 </v>
  <v type="int" >       43 </v>
  <v type="int" >       11 </v>
 </varray>
 <kpoints>
  <generation param="Gamma">
   <v type="int" name="divisions">       2        2        2 </v>
   <v name="usershift">      0.00000000       0.00000000       0.00000000 </v>
   <v name="genvec1">      0.50000000       0.00000000       0.00000000 </v>
   <v name="genvec2">      0.00000000       0.50000000       0.00000000 </v>
   <v name="genvec3">      0.00000000       0.00000000       0.50000000 </v>
   <v name="shift">      0.00000000       0.00000000       0.00000000 </v>
  </generation>
  <varray name="kpointlist" >
   <v>       0.00000000       0.00000000       0.00000000 </v>
   <v>       0.50000000       0.00000000       0.00000000 </v>
   <v>       0.00000000       0.50000000       0.00000000 </v>
   <v>       0.50000000       0.50000000       0.00000000 </v>
   <v>       0.00000000       0.00000000       0.50000000 </v>
   <v>       0.50000000       0.00000000       0.50000000 </v>
   <v>       0.00000000       0.50000000       0.50000000 </v>
   <v>       0.50000000       0.50000000       0.50000000 </v>
  </varray>
  <varray name="weights" >
   <v>       0.12500000 </v>
   <v>       0.12500000 </v>
   <v>       0.12500000 </v>
   <v>       0.12500000 </v>
   <v>       0.12500000 </v>
   <v>       0.12500000 </v>
   <v>       0.12500000 </v>
   <v>       0.12500000 </v>
  </varray>
  <varray name="tetrahedronlist"  type="int" >
   <v type="int" >        2        1        2        4        5 </v>
   <v type="int" >        2        1        3        4        5 </v>
   <v type="int" >        2        3        4        5        7 </v>
   <v type="int" >        2        2        4        5        6 </v>
   <v type="int" >        2        4        5        6        8 </v>
   <v type="int" >        2        4        5        7        8 </v>
   <v type="int" >        2        1        2        3        6 </v>
   <v type="int" >        2        2        3        4        6 </v>
   <v type="int" >        2        3        4        6        8 </v>
   <v type="int" >        2        1        3        5        6 </v>
   <v type="int" >        2        3        5        6        7 </v>
   <v type="int" >        2        3        6        7        8 </v>
   <v type="int" >        2        2        3        4        7 </v>
   <v type="int" >        2        1        2        3        7 </v>
   <v type="int" >        2        1        2        5        7 </v>
   <v type="int" >        2        2        4        7        8 </v>
   <v type="int" >        2        2        6        7        8 </v>
   <v type="int" >        2        2        5        6        7 </v>
   <v type="int" >        2        1        3        4        8 </v>
   <v type="int" >        2        1        2        4        8 </v>
   <v type="int" >        2        1        2        6        8 </v>
   <v type="int" >        2        1        3        7        8 </v>
   <v type="int" >        2        1        5        7        8 </v>
   <v type="int" >        2        1        5        6        8 </v>
  </varray>
  <i name="volumeweight">      0.02083333 </i>
 </kpoints>
 <parameters>
  <separator name="general" >
   <i type="string" name="SYSTEM">La2O2S</i>
   <i type="logical" name="LCOMPAT"> F  </i>
  </separator>
  <separator name="electronic" >
   <i type="string" name="PREC">normal</i>
   <i name="ENMAX">    600.00000000</i>
   <i name="ENAUG">    900.00000000</i>
   <i name="EDIFF">      0.00000100</i>
   <i type="int" name="IALGO">    38</i>
   <i type="int" name="IWAVPR">    11</i>
   <i type="int" name="NBANDS">   280</i>
   <i name="NELECT">    464.00000000</i>
   <i type="int" name="TURBO">     0</i>
   <i type="int" name="IRESTART">     0</i>
   <i type="int" name="NREBOOT">     0</i>
   <i type="int" name="NMIN">     0</i>
   <i name="EREF">      0.00000000</i>
   <separator name="electronic smearing" >
    <i type="int" name="ISMEAR">    -5</i>
    <i name="SIGMA">      0.20000000</i>
    <i name="KSPACING">      0.50000000</i>
    <i type="logical" name="KGAMMA"> T  </i>
   </separator>
   <separator name="electronic projectors" >
    <i type="logical" name="LREAL"> F  </i>
    <v name="ROPT">      0.00000000      0.00000000      0.00000000      0.00000000      0.00000000</v>
    <i type="int" name="LMAXPAW">  -100</i>
    <i type="int" name="LMAXMIX">     2</i>
    <i type="logical" name="NLSPLINE"> F  </i>
   </separator>
   <separator name="electronic startup" >
    <i type="int" name="ISTART">     0</i>
    <i type="int" name="ICHARG">     2</i>
    <i type="int" name="INIWAV">     1</i>
   </separator>
   <separator name="electronic spin" >
    <i type="int" name="ISPIN">     1</i>
    <i type="logical" name="LNONCOLLINEAR"> F  </i>
    <v name="MAGMOM">      1.00000000      1.00000000      1.00000000      1.00000000      1.00000000      1.00000000      1.00000000      1.00000000      1.00000000      1.00000000      1.00000000      1.00000000      1.00000000      1.00000000      1.00000000      1.00000000      1.00000000      1.00000000      1.00000000      1.00000000
      1.00000000      1.00000000      1.00000000      1.00000000      1.00000000      1.00000000      1.00000000      1.00000000      1.00000000      1.00000000      1.00000000      1.00000000      1.00000000      1.00000000      1.00000000      1.00000000      1.00000000      1.00000000      1.00000000      1.00000000
      1.00000000      1.00000000      1.00000000      1.00000000      1.00000000      1.00000000      1.00000000      1.00000000      1.00000000      1.00000000      1.00000000      1.00000000      1.00000000      1.00000000      1.00000000      1.00000000      1.00000000      1.00000000      1.00000000      1.00000000
</v>
    <i name="NUPDOWN">     -1.00000000</i>
    <i type="logical" name="LSORBIT"> F  </i>
    <v name="SAXIS">      0.00000000      0.00000000      1.00000000</v>
    <i type="logical" name="LSPIRAL"> F  </i>
    <v name="QSPIRAL">      0.00000000      0.00000000      0.00000000</v>
    <i type="logical" name="LZEROZ"> F  </i>
   </separator>
   <separator name="electronic exchange-correlation" >
    <i type="logical" name="LASPH"> F  </i>
    <i type="logical" name="LMETAGGA"> F  </i>
   </separator>
   <separator name="electronic convergence" >
    <i type="int" name="NELM">    60</i>
    <i type="int" name="NELMDL">    -5</i>
    <i type="int" name="NELMIN">     4</i>
    <i name="ENINI">    600.00000000</i>
    <separator name="electronic convergence detail" >
     <i type="logical" name="LDIAG"> T  </i>
     <i type="logical" name="LSUBROT"> F  </i>
     <i name="WEIMIN">      0.00100000</i>
     <i name="EBREAK">      0.00000000</i>
     <i name="DEPER">      0.30000000</i>
     <i type="int" name="NRMM">     4</i>
     <i name="TIME">      0.40000000</i>
    </separator>
   </separator>
   <separator name="electronic mixer" >
    <i name="AMIX">      0.40000000</i>
    <i name="BMIX">      1.00000000</i>
    <i name="AMIN">      0.10000000</i>
    <i name="AMIX_MAG">      1.60000000</i>
    <i name="BMIX_MAG">      1.00000000</i>
    <separator name="electronic mixer details" >
     <i type="int" name="IMIX">     4</i>
     <i type="logical" name="MIXFIRST"> F  </i>
     <i type="int" name="MAXMIX">   -45</i>
     <i name="WC">    100.00000000</i>
     <i type="int" name="INIMIX">     1</i>
     <i type="int" name="MIXPRE">     1</i>
     <i type="int" name="MREMOVE">     5</i>
    </separator>
   </separator>
   <separator name="electronic dipolcorrection" >
    <i type="logical" name="LDIPOL"> F  </i>
    <i type="logical" name="LMONO"> F  </i>
    <i type="int" name="IDIPOL">     0</i>
    <i name="EPSILON">      1.00000000</i>
    <v name="DIPOL">   -100.00000000   -100.00000000   -100.00000000</v>
    <i name="EFIELD">      0.00000000</i>
   </separator>
  </separator>
  <separator name="grids" >
   <i type="int" name="NGX">    70</i>
   <i type="int" name="NGY">    60</i>
   <i type="int" name="NGZ">    70</i>
   <i type="int" name="NGXF">   140</i>
   <i type="int" name="NGYF">   120</i>
   <i type="int" name="NGZF">   140</i>
   <i type="logical" name="ADDGRID"> F  </i>
  </separator>
  <separator name="ionic" >
   <i type="int" name="NSW">     1</i>
   <i type="int" name="IBRION">     2</i>
   <i type="int" name="MDALGO">     0</i>
   <i type="int" name="ISIF">     2</i>
   <i name="PSTRESS">      0.00000000</i>
   <i name="EDIFFG">     -0.01000000</i>
   <i type="int" name="NFREE">    10</i>
   <i name="POTIM">      0.50000000</i>
   <i name="SMASS">     -3.00000000</i>
   <i name="SCALEE">      1.00000000</i>
  </separator>
  <separator name="ionic md" >
   <i name="TEBEG">      0.00010000</i>
   <i name="TEEND">      0.00010000</i>
   <i type="int" name="NBLOCK">     1</i>
   <i type="int" name="KBLOCK">     1</i>
   <i type="int" name="NPACO">   256</i>
   <i name="APACO">     16.00000000</i>
  </separator>
  <separator name="symmetry" >
   <i type="int" name="ISYM">     2</i>
   <i name="SYMPREC">      0.00001000</i>
  </separator>
  <separator name="dos" >
   <i type="int" name="LORBIT">     0</i>
   <v name="RWIGS">     -1.00000000     -1.00000000     -1.00000000     -1.00000000     -1.00000000</v>
   <i type="int" name="NEDOS">   301</i>
   <i name="EMIN">     10.00000000</i>
   <i name="EMAX">    -10.00000000</i>
   <i name="EFERMI">      0.00000000</i>
  </separator>
  <separator name="writing" >
   <i type="int" name="NWRITE">     2</i>
   <i type="logical" name="LWAVE"> F  </i>
   <i type="logical" name="LDOWNSAMPLE"> F  </i>
   <i type="logical" name="LCHARG"> F  </i>
   <i type="logical" name="LPARD"> F  </i>
   <i type="logical" name="LVTOT"> F  </i>
   <i type="logical" name="LVHAR"> F  </i>
   <i type="logical" name="LELF"> F  </i>
   <i type="logical" name="LOPTICS"> F  </i>
   <v name="STM">      0.00000000      0.00000000      0.00000000      0.00000000      0.00000000      0.00000000      0.00000000</v>
  </separator>
  <separator name="performance" >
   <i type="int" name="NPAR">    28</i>
   <i type="int" name="NSIM">     4</i>
   <i type="int" name="NBLK">    -1</i>
   <i type="logical" name="LPLANE"> T  </i>
   <i type="logical" name="LSCALAPACK"> T  </i>
   <i type="logical" name="LSCAAWARE"> F  </i>
   <i type="logical" name="LSCALU"> F  </i>
   <i type="logical" name="LASYNC"> F  </i>
   <i type="logical" name="LORBITALREAL"> F  </i>
  </separator>
  <separator name="miscellaneous" >
   <i type="int" name="IDIOT">     3</i>
   <i type="int" name="ISPECIAL">     0</i>
   <i type="logical" name="LMUSIC"> F  </i>
   <v name="POMASS">      7.01000000     24.30500000    208.98000000     32.06600000     16.00000000</v>
   <v name="DARWINR">      0.00000000      0.00000000      0.00000000      0.00000000      0.00000000</v>
   <v name="DARWINV">      1.00000000      1.00000000      1.00000000      1.00000000      1.00000000</v>
   <i type="logical" name="LCORR"> T  </i>
  </separator>
  <i type="logical" name="GGA_COMPAT"> T  </i>
  <i type="logical" name="LBERRY"> F  </i>
  <i type="int" name="ICORELEVEL">     0</i>
  <i type="logical" name="LDAU"> F  </i>
  <i type="int" name="I_CONSTRAINED_M">     0</i>
  <separator name="electronic exchange-correlation" >
   <i type="string" name="GGA">--</i>
   <i type="int" name="VOSKOWN">     0</i>
   <i type="logical" name="LHFCALC"> F  </i>
   <i type="string" name="PRECFOCK"></i>
   <i type="logical" name="LSYMGRAD"> F  </i>
   <i type="logical" name="LHFONE"> F  </i>
   <i type="logical" name="LRHFCALC"> F  </i>
   <i type="logical" name="LTHOMAS"> F  </i>
   <i type="logical" name="LMODELHF"> F  </i>
   <i name="ENCUT4O">     -1.00000000</i>
   <i type="int" name="EXXOEP">     0</i>
   <i type="int" name="FOURORBIT">     0</i>
   <i name="AEXX">      0.00000000</i>
   <i name="HFALPHA">      0.00000000</i>
   <i name="MCALPHA">      0.00000000</i>
   <i name="ALDAX">      1.00000000</i>
   <i name="AGGAX">      1.00000000</i>
   <i name="ALDAC">      1.00000000</i>
   <i name="AGGAC">      1.00000000</i>
   <i type="int" name="NKREDX">     1</i>
   <i type="int" name="NKREDY">     1</i>
   <i type="int" name="NKREDZ">     1</i>
   <i type="logical" name="SHIFTRED"> F  </i>
   <i type="logical" name="ODDONLY"> F  </i>
   <i type="logical" name="EVENONLY"> F  </i>
   <i type="int" name="LMAXFOCK">     0</i>
   <i type="int" name="NMAXFOCKAE">     0</i>
   <i type="logical" name="LFOCKAEDFT"> F  </i>
   <i name="HFSCREEN">      0.00000000</i>
   <i name="HFSCREENC">      0.00000000</i>
   <i type="int" name="NBANDSGWLOW">     0</i>
  </separator>
  <separator name="vdW DFT" >
   <i type="logical" name="LUSE_VDW"> F  </i>
   <i name="Zab_VDW">     -0.84910000</i>
   <i name="PARAM1">      0.12340000</i>
   <i name="PARAM2">      1.00000000</i>
   <i name="PARAM3">      0.00000000</i>
  </separator>
  <separator name="model GW" >
   <i type="int" name="MODEL_GW">     0</i>
   <i name="MODEL_EPS0">     11.96848538</i>
   <i name="MODEL_ALPHA">      1.00000000</i>
  </separator>
  <separator name="linear response parameters" >
   <i type="logical" name="LEPSILON"> F  </i>
   <i type="logical" name="LRPA"> F  </i>
   <i type="logical" name="LNABLA"> F  </i>
   <i type="logical" name="LVEL"> F  </i>
   <i type="int" name="KINTER">     0</i>
   <i name="CSHIFT">      0.10000000</i>
   <i name="OMEGAMAX">     -1.00000000</i>
   <i name="DEG_THRESHOLD">      0.00200000</i>
   <i name="RTIME">     -0.10000000</i>
   <i name="WPLASMAI">      0.00000000</i>
   <v name="DFIELD">      0.00000000      0.00000000      0.00000000</v>
   <v name="WPLASMA">      0.00000000      0.00000000      0.00000000      0.00000000      0.00000000      0.00000000      0.00000000      0.00000000      0.00000000</v>
  </separator>
  <separator name="orbital magnetization" >
   <i type="logical" name="NUCIND"> F  </i>
   <v name="MAGPOS">      0.00000000      0.00000000      0.00000000</v>
   <i type="logical" name="LNICSALL"> T  </i>
   <i type="logical" name="ORBITALMAG"> F  </i>
   <i type="logical" name="LMAGBLOCH"> F  </i>
   <i type="logical" name="LCHIMAG"> F  </i>
   <i type="logical" name="LGAUGE"> T  </i>
   <i type="int" name="MAGATOM">     0</i>
   <v name="MAGDIPOL">      0.00000000      0.00000000      0.00000000</v>
   <v name="AVECCONST">      0.00000000      0.00000000      0.00000000</v>
  </separator>
  <separator name="response functions" >
   <i type="logical" name="LADDER"> F  </i>
   <i type="logical" name="LRPAFORCE"> F  </i>
   <i type="logical" name="LFXC"> F  </i>
   <i type="logical" name="LHARTREE"> T  </i>
   <i type="int" name="IBSE">     0</i>
   <v type="int" name="KPOINT">    -1     0     0     0</v>
   <i type="logical" name="LTCTE"> F  </i>
   <i type="logical" name="LTETE"> F  </i>
   <i type="logical" name="LTRIPLET"> F  </i>
   <i type="logical" name="LFXCEPS"> F  </i>
   <i type="logical" name="LFXHEG"> F  </i>
   <i type="int" name="NATURALO">     2</i>
   <i type="logical" name="L2ORDER"> F  </i>
   <i type="logical" name="LMP2LT"> F  </i>
   <i type="logical" name="LUSEW"> F  </i>
   <i name="ENCUTGW">     -2.00000000</i>
   <i name="ENCUTGWSOFT">     -2.00000000</i>
   <i name="ENCUTLF">     -1.00000000</i>
   <i type="int" name="LMAXMP2">    -1</i>
   <i name="SCISSOR">      0.00000000</i>
   <i type="int" name="NOMEGA">     0</i>
   <i type="int" name="NOMEGAR">     0</i>
   <i type="int" name="NBANDSGW">    -1</i>
   <i type="int" name="NBANDSO">    -1</i>
   <i type="int" name="NBANDSV">    -1</i>
   <i type="int" name="NELM">     1</i>
   <i type="int" name="NELMHF">     1</i>
   <i type="int" name="DIM">     3</i>
   <i type="int" name="ANTIRES">     0</i>
   <i name="OMEGAMAX">    -30.00000000</i>
   <i name="OMEGAMIN">    -30.00000000</i>
   <i name="OMEGATL">   -200.00000000</i>
   <i type="int" name="OMEGAGRID">   140</i>
   <i name="CSHIFT">     -0.10000000</i>
   <i type="logical" name="SELFENERGY"> F  </i>
   <i type="logical" name="LSPECTRAL"> F  </i>
   <i type="logical" name="LSPECTRALGW"> F  </i>
   <i type="logical" name="LSINGLES"> F  </i>
   <i type="logical" name="LFERMIGW"> F  </i>
   <i type="logical" name="ODDONLYGW"> F  </i>
   <i type="logical" name="EVENONLYGW"> F  </i>
   <i type="int" name="NKREDLFX">     1</i>
   <i type="int" name="NKREDLFY">     1</i>
   <i type="int" name="NKREDLFZ">     1</i>
   <i type="int" name="MAXMEM">  2800</i>
   <i type="int" name="TELESCOPE">     0</i>
   <i type="int" name="TAUPAR">     1</i>
   <i type="int" name="OMEGAPAR">    -1</i>
   <i name="LAMBDA">      1.00000000</i>
  </separator>
  <separator name="External order field" >
   <i name="OFIELD_KAPPA">      0.00000000</i>
   <v name="OFIELD_K">      0.00000000      0.00000000      0.00000000</v>
   <i name="OFIELD_Q6_NEAR">      0.00000000</i>
   <i name="OFIELD_Q6_FAR">      0.00000000</i>
   <i name="OFIELD_A">      0.00000000</i>
  </separator>
 </parameters>
 <atominfo>
  <atoms>      60 </atoms>
  <types>       5 </types>
  <array name="atoms" >
   <dimension dim="1">ion</dimension>
   <field type="string">element</field>
   <field type="int">atomtype</field>
   <set>
    <rc><c>Li</c><c>   1</c></rc>
    <rc><c>Li</c><c>   1</c></rc>
    <rc><c>Li</c><c>   1</c></rc>
    <rc><c>Li</c><c>   1</c></rc>
    <rc><c>Li</c><c>   1</c></rc>
    <rc><c>Li</c><c>   1</c></rc>
    <rc><c>Li</c><c>   1</c></rc>
    <rc><c>Li</c><c>   1</c></rc>
    <rc><c>Mg</c><c>   2</c></rc>
    <rc><c>Mg</c><c>   2</c></rc>
    <rc><c>Mg</c><c>   2</c></rc>
    <rc><c>Mg</c><c>   2</c></rc>
    <rc><c>Bi</c><c>   3</c></rc>
    <rc><c>Bi</c><c>   3</c></rc>
    <rc><c>Bi</c><c>   3</c></rc>
    <rc><c>Bi</c><c>   3</c></rc>
    <rc><c>Bi</c><c>   3</c></rc>
    <rc><c>Bi</c><c>   3</c></rc>
    <rc><c>Bi</c><c>   3</c></rc>
    <rc><c>Bi</c><c>   3</c></rc>
    <rc><c>Bi</c><c>   3</c></rc>
    <rc><c>Bi</c><c>   3</c></rc>
    <rc><c>Bi</c><c>   3</c></rc>
    <rc><c>Bi</c><c>   3</c></rc>
    <rc><c>Bi</c><c>   3</c></rc>
    <rc><c>Bi</c><c>   3</c></rc>
    <rc><c>Bi</c><c>   3</c></rc>
    <rc><c>Bi</c><c>   3</c></rc>
    <rc><c>S </c><c>   4</c></rc>
    <rc><c>S </c><c>   4</c></rc>
    <rc><c>S </c><c>   4</c></rc>
    <rc><c>S </c><c>   4</c></rc>
    <rc><c>S </c><c>   4</c></rc>
    <rc><c>S </c><c>   4</c></rc>
    <rc><c>S </c><c>   4</c></rc>
    <rc><c>S </c><c>   4</c></rc>
    <rc><c>S </c><c>   4</c></rc>
    <rc><c>S </c><c>   4</c></rc>
    <rc><c>S </c><c>   4</c></rc>
    <rc><c>S </c><c>   4</c></rc>
    <rc><c>S </c><c>   4</c></rc>
    <rc><c>S </c><c>   4</c></rc>
    <rc><c>S </c><c>   4</c></rc>
    <rc><c>S </c><c>   4</c></rc>
    <rc><c>O </c><c>   5</c></rc>
    <rc><c>O </c><c>   5</c></rc>
    <rc><c>O </c><c>   5</c></rc>
    <rc><c>O </c><c>   5</c></rc>
    <rc><c>O </c><c>   5</c></rc>
    <rc><c>O </c><c>   5</c></rc>
    <rc><c>O </c><c>   5</c></rc>
    <rc><c>O </c><c>   5</c></rc>
    <rc><c>O </c><c>   5</c></rc>
    <rc><c>O </c><c>   5</c></rc>
    <rc><c>O </c><c>   5</c></rc>
    <rc><c>O </c><c>   5</c></rc>
    <rc><c>O </c><c>   5</c></rc>
    <rc><c>O </c><c>   5</c></rc>
    <rc><c>O </c><c>   5</c></rc>
    <rc><c>O </c><c>   5</c></rc>
   </set>
  </array>
  <array name="atomtypes" >
   <dimension dim="1">type</dimension>
   <field type="int">atomspertype</field>
   <field type="string">element</field>
   <field>mass</field>
   <field>valence</field>
   <field type="string">pseudopotential</field>
   <set>
    <rc><c>   8</c><c>Li</c><c>      7.01000000</c><c>      3.00000000</c><c>  PAW_PBE Li_sv 10Sep2004               </c></rc>
    <rc><c>   4</c><c>Mg</c><c>     24.30500000</c><c>      2.00000000</c><c>  PAW_PBE Mg 13Apr2007                  </c></rc>
    <rc><c>  16</c><c>Bi</c><c>    208.98000000</c><c>     15.00000000</c><c>  PAW_PBE Bi_d 06Sep2000                </c></rc>
    <rc><c>  16</c><c>S </c><c>     32.06600000</c><c>      6.00000000</c><c>  PAW_PBE S 06Sep2000                   </c></rc>
    <rc><c>  16</c><c>O </c><c>     16.00000000</c><c>      6.00000000</c><c>  PAW_PBE O 08Apr2002                   </c></rc>
   </set>
  </array>
 </atominfo>
 <structure name="initialpos" >
  <crystal>
   <varray name="basis" >
    <v>      11.17850000       0.00000000       0.00000000 </v>
    <v>       0.00000000       9.57460000       0.00000000 </v>
    <v>       0.00000000       0.00000000      11.18240000 </v>
   </varray>
   <i name="volume">   1196.84853820 </i>
   <varray name="rec_basis" >
    <v>       0.08945744       0.00000000       0.00000000 </v>
    <v>       0.00000000       0.10444301       0.00000000 </v>
    <v>       0.00000000       0.00000000       0.08942624 </v>
   </varray>
  </crystal>
  <varray name="positions" >
   <v>       0.37539000       0.00017000       0.43687000 </v>
   <v>       0.12461000       0.99984000       0.18687000 </v>
   <v>       0.37461000       0.00017000       0.18687000 </v>
   <v>       0.62539000       0.99984000       0.43687000 </v>
   <v>       0.87539000       0.00017000       0.43687000 </v>
   <v>       0.62461000       0.99984000       0.18687000 </v>
   <v>       0.87461000       0.00017000       0.18687000 </v>
   <v>       0.87461000       0.00017000       0.68687000 </v>
   <v>       0.37539000       0.00017000       0.93687000 </v>
   <v>       0.12461000       0.99984000       0.68687000 </v>
   <v>       0.87539000       0.00017000       0.93687000 </v>
   <v>       0.62461000       0.99984000       0.68687000 </v>
   <v>       0.00013000       0.29519000       0.06281000 </v>
   <v>       0.25013000       0.70481000       0.06281000 </v>
   <v>       0.24987000       0.29519000       0.31282000 </v>
   <v>       0.49987000       0.70481000       0.31282000 </v>
   <v>       0.50013000       0.29519000       0.06281000 </v>
   <v>       0.75013000       0.70481000       0.06281000 </v>
   <v>       0.74987000       0.29519000       0.31282000 </v>
   <v>       0.99987000       0.70481000       0.31282000 </v>
   <v>       0.00013000       0.29519000       0.56281000 </v>
   <v>       0.25013000       0.70481000       0.56281000 </v>
   <v>       0.24987000       0.29519000       0.81282000 </v>
   <v>       0.49987000       0.70481000       0.81282000 </v>
   <v>       0.50013000       0.29519000       0.56281000 </v>
   <v>       0.75013000       0.70481000       0.56281000 </v>
   <v>       0.74987000       0.29519000       0.81282000 </v>
   <v>       0.99987000       0.70481000       0.81282000 </v>
   <v>       0.25005000       0.32677000       0.06286000 </v>
   <v>       0.00005000       0.67323000       0.06286000 </v>
   <v>       0.49995000       0.32677000       0.31286000 </v>
   <v>       0.24995000       0.67323000       0.31286000 </v>
   <v>       0.75005000       0.32677000       0.06286000 </v>
   <v>       0.50005000       0.67323000       0.06286000 </v>
   <v>       0.99995000       0.32677000       0.31286000 </v>
   <v>       0.74995000       0.67323000       0.31286000 </v>
   <v>       0.25005000       0.32677000       0.56286000 </v>
   <v>       0.00005000       0.67323000       0.56286000 </v>
   <v>       0.49995000       0.32677000       0.81286000 </v>
   <v>       0.24995000       0.67323000       0.81286000 </v>
   <v>       0.75005000       0.32677000       0.56286000 </v>
   <v>       0.50005000       0.67323000       0.56286000 </v>
   <v>       0.99995000       0.32677000       0.81286000 </v>
   <v>       0.74995000       0.67323000       0.81286000 </v>
   <v>       0.49987000       0.07798000       0.06246000 </v>
   <v>       0.24987000       0.92202000       0.06246000 </v>
   <v>       0.25013000       0.07798000       0.31246000 </v>
   <v>       0.00013000       0.92202000       0.31246000 </v>
   <v>       0.99987000       0.07798000       0.06246000 </v>
   <v>       0.74987000       0.92202000       0.06246000 </v>
   <v>       0.75013000       0.07798000       0.31246000 </v>
   <v>       0.50013000       0.92202000       0.31246000 </v>
   <v>       0.49987000       0.07798000       0.56246000 </v>
   <v>       0.24987000       0.92202000       0.56246000 </v>
   <v>       0.25013000       0.07798000       0.81246000 </v>
   <v>       0.00013000       0.92202000       0.81246000 </v>
   <v>       0.99987000       0.07798000       0.56246000 </v>
   <v>       0.74987000       0.92202000       0.56246000 </v>
   <v>       0.75013000       0.07798000       0.81246000 </v>
   <v>       0.50013000       0.92202000       0.81246000 </v>
  </varray>
 </structure>
 <calculation>
  <scstep>
   <time name="dav">   61.33   61.59</time>
   <time name="total">   61.41   61.67</time>
   <energy>
    <i name="alphaZ">   1067.11773629 </i>
    <i name="ewald"> -30635.39641874 </i>
    <i name="hartreedc"> -12718.25635473 </i>
    <i name="XCdc">   1321.05352636 </i>
    <i name="pawpsdc">  36729.48549953 </i>
    <i name="pawaedc"> -36149.63912807 </i>
    <i name="eentropy">      0.00000000 </i>
    <i name="bandstr">   1835.01501501 </i>
    <i name="atom">  44408.54722957 </i>
    <i name="e_fr_energy">   5857.92710522 </i>
    <i name="e_wo_entrp">   5857.92710522 </i>
    <i name="e_0_energy">   5857.92710522 </i>
   </energy>
  </scstep>
  <scstep>
   <time name="dav">   61.15   61.57</time>
   <time name="total">   61.16   61.58</time>
   <energy>
    <i name="e_fr_energy">    793.33436160 </i>
    <i name="e_wo_entrp">    793.33436160 </i>
    <i name="e_0_energy">    793.33436160 </i>
   </energy>
  </scstep>
  <scstep>
   <time name="dav">   70.99   71.51</time>
   <time name="total">   71.00   71.51</time>
   <energy>
    <i name="e_fr_energy">   -242.25403162 </i>
    <i name="e_wo_entrp">   -242.25403162 </i>
    <i name="e_0_energy">   -242.25403162 </i>
   </energy>
  </scstep>
  <scstep>
   <time name="dav">   72.73   73.19</time>
   <time name="total">   72.74   73.20</time>
   <energy>
    <i name="e_fr_energy">   -341.58187628 </i>
    <i name="e_wo_entrp">   -341.58187628 </i>
    <i name="e_0_energy">   -341.58187628 </i>
   </energy>
  </scstep>
  <scstep>
   <time name="dav">   96.71   97.48</time>
   <time name="total">   97.40   98.22</time>
   <energy>
    <i name="e_fr_energy">   -349.88291188 </i>
    <i name="e_wo_entrp">   -349.88291188 </i>
    <i name="e_0_energy">   -349.88291188 </i>
   </energy>
  </scstep>
  <scstep>
   <time name="dav">   86.45   87.67</time>
   <time name="total">   87.24   88.47</time>
   <energy>
    <i name="e_fr_energy">   -292.59545309 </i>
    <i name="e_wo_entrp">   -292.59545309 </i>
    <i name="e_0_energy">   -292.59545309 </i>
   </energy>
  </scstep>
  <scstep>
   <time name="dav">   65.27   66.50</time>
   <time name="total">   66.07   67.31</time>
   <energy>
    <i name="e_fr_energy">   -295.22458987 </i>
    <i name="e_wo_entrp">   -295.22458987 </i>
    <i name="e_0_energy">   -295.22458987 </i>
   </energy>
  </scstep>
  <scstep>
   <time name="dav">   80.21   81.36</time>
   <time name="total">   81.01   82.16</time>
   <energy>
    <i name="e_fr_energy">   -294.07136487 </i>
    <i name="e_wo_entrp">   -294.07136487 </i>
    <i name="e_0_energy">   -294.07136487 </i>
   </energy>
  </scstep>
  <scstep>
   <time name="dav">   73.57   74.47</time>
   <time name="total">   74.36   75.27</time>
   <energy>
    <i name="e_fr_energy">   -293.46021333 </i>
    <i name="e_wo_entrp">   -293.46021333 </i>
    <i name="e_0_energy">   -293.46021333 </i>
   </energy>
  </scstep>
  <scstep>
   <time name="dav">   75.95   76.34</time>
   <time name="total">   76.74   77.14</time>
   <energy>
    <i name="e_fr_energy">   -293.48721304 </i>
    <i name="e_wo_entrp">   -293.48721304 </i>
    <i name="e_0_energy">   -293.48721304 </i>
   </energy>
  </scstep>
  <scstep>
   <time name="dav">   81.08   81.65</time>
   <time name="total">   81.87   82.44</time>
   <energy>
    <i name="e_fr_energy">   -293.49464306 </i>
    <i name="e_wo_entrp">   -293.49464306 </i>
    <i name="e_0_energy">   -293.49464306 </i>
   </energy>
  </scstep>
  <scstep>
   <time name="dav">   80.05   80.55</time>
   <time name="total">   80.85   81.35</time>
   <energy>
    <i name="e_fr_energy">   -293.49743169 </i>
    <i name="e_wo_entrp">   -293.49743169 </i>
    <i name="e_0_energy">   -293.49743169 </i>
   </energy>
  </scstep>
  <scstep>
   <time name="dav">   77.03   77.34</time>
   <time name="total">   77.83   78.14</time>
   <energy>
    <i name="e_fr_energy">   -293.49880597 </i>
    <i name="e_wo_entrp">   -293.49880597 </i>
    <i name="e_0_energy">   -293.49880597 </i>
   </energy>
  </scstep>
  <scstep>
   <time name="dav">   77.83   78.39</time>
   <time name="total">   78.61   79.19</time>
   <energy>
    <i name="e_fr_energy">   -293.49898350 </i>
    <i name="e_wo_entrp">   -293.49898350 </i>
    <i name="e_0_energy">   -293.49898350 </i>
   </energy>
  </scstep>
  <scstep>
   <time name="dav">   79.13   79.60</time>
   <time name="total">   80.00   80.47</time>
   <energy>
    <i name="e_fr_energy">   -293.49902290 </i>
    <i name="e_wo_entrp">   -293.49902290 </i>
    <i name="e_0_energy">   -293.49902290 </i>
   </energy>
  </scstep>
  <scstep>
   <time name="dav">   67.10   67.44</time>
   <time name="total">   67.90   68.24</time>
   <energy>
    <i name="e_fr_energy">   -293.49904525 </i>
    <i name="e_wo_entrp">   -293.49904525 </i>
    <i name="e_0_energy">   -293.49904525 </i>
   </energy>
  </scstep>
  <scstep>
   <time name="dav">   71.95   73.18</time>
   <time name="total">   72.74   73.98</time>
   <energy>
    <i name="e_fr_energy">   -293.49904825 </i>
    <i name="e_wo_entrp">   -293.49904825 </i>
    <i name="e_0_energy">   -293.49904825 </i>
   </energy>
  </scstep>
  <scstep>
   <time name="dav">   64.51   65.75</time>
   <time name="total">   64.58   65.82</time>
   <energy>
    <i name="alphaZ">   1067.11773629 </i>
    <i name="ewald"> -30635.39641874 </i>
    <i name="hartreedc"> -12959.17932227 </i>
    <i name="XCdc">   1345.28914673 </i>
    <i name="pawpsdc">  43760.90426606 </i>
    <i name="pawaedc"> -43155.11590455 </i>
    <i name="eentropy">      0.00000000 </i>
    <i name="bandstr">  -4125.66578198 </i>
    <i name="atom">  44408.54722957 </i>
    <i name="e_fr_energy">   -293.49904888 </i>
    <i name="e_wo_entrp">   -293.49904888 </i>
    <i name="e_0_energy">   -293.49904888 </i>
   </energy>
  </scstep>
  <structure>
   <crystal>
    <varray name="basis" >
     <v>      11.17850000       0.00000000       0.00000000 </v>
     <v>       0.00000000       9.57460000       0.00000000 </v>
     <v>       0.00000000       0.00000000      11.18240000 </v>
    </varray>
    <i name="volume">   1196.84853820 </i>
    <varray name="rec_basis" >
     <v>       0.08945744       0.00000000       0.00000000 </v>
     <v>       0.00000000       0.10444301       0.00000000 </v>
     <v>       0.00000000       0.00000000       0.08942624 </v>
    </varray>
   </crystal>
   <varray name="positions" >
    <v>       0.37539000       0.00017000       0.43687000 </v>
    <v>       0.12461000       0.99984000       0.18687000 </v>
    <v>       0.37461000       0.00017000       0.18687000 </v>
    <v>       0.62539000       0.99984000       0.43687000 </v>
    <v>       0.87539000       0.00017000       0.43687000 </v>
    <v>       0.62461000       0.99984000       0.18687000 </v>
    <v>       0.87461000       0.00017000       0.18687000 </v>
    <v>       0.87461000       0.00017000       0.68687000 </v>
    <v>       0.37539000       0.00017000       0.93687000 </v>
    <v>       0.12461000       0.99984000       0.68687000 </v>
    <v>       0.87539000       0.00017000       0.93687000 </v>
    <v>       0.62461000       0.99984000       0.68687000 </v>
    <v>       0.00013000       0.29519000       0.06281000 </v>
    <v>       0.25013000       0.70481000       0.06281000 </v>
    <v>       0.24987000       0.29519000       0.31282000 </v>
    <v>       0.49987000       0.70481000       0.31282000 </v>
    <v>       0.50013000       0.29519000       0.06281000 </v>
    <v>       0.75013000       0.70481000       0.06281000 </v>
    <v>       0.74987000       0.29519000       0.31282000 </v>
    <v>       0.99987000       0.70481000       0.31282000 </v>
    <v>       0.00013000       0.29519000       0.56281000 </v>
    <v>       0.25013000       0.70481000       0.56281000 </v>
    <v>       0.24987000       0.29519000       0.81282000 </v>
    <v>       0.49987000       0.70481000       0.81282000 </v>
    <v>       0.50013000       0.29519000       0.56281000 </v>
    <v>       0.75013000       0.70481000       0.56281000 </v>
    <v>       0.74987000       0.29519000       0.81282000 </v>
    <v>       0.99987000       0.70481000       0.81282000 </v>
    <v>       0.25005000       0.32677000       0.06286000 </v>
    <v>       0.00005000       0.67323000       0.06286000 </v>
    <v>       0.49995000       0.32677000       0.31286000 </v>
    <v>       0.24995000       0.67323000       0.31286000 </v>
    <v>       0.75005000       0.32677000       0.06286000 </v>
    <v>       0.50005000       0.67323000       0.06286000 </v>
    <v>       0.99995000       0.32677000       0.31286000 </v>
    <v>       0.74995000       0.67323000       0.31286000 </v>
    <v>       0.25005000       0.32677000       0.56286000 </v>
    <v>       0.00005000       0.67323000       0.56286000 </v>
    <v>       0.49995000       0.32677000       0.81286000 </v>
    <v>       0.24995000       0.67323000       0.81286000 </v>
    <v>       0.75005000       0.32677000       0.56286000 </v>
    <v>       0.50005000       0.67323000       0.56286000 </v>
    <v>       0.99995000       0.32677000       0.81286000 </v>
    <v>       0.74995000       0.67323000       0.81286000 </v>
    <v>       0.49987000       0.07798000       0.06246000 </v>
    <v>       0.24987000       0.92202000       0.06246000 </v>
    <v>       0.25013000       0.07798000       0.31246000 </v>
    <v>       0.00013000       0.92202000       0.31246000 </v>
    <v>       0.99987000       0.07798000       0.06246000 </v>
    <v>       0.74987000       0.92202000       0.06246000 </v>
    <v>       0.75013000       0.07798000       0.31246000 </v>
    <v>       0.50013000       0.92202000       0.31246000 </v>
    <v>       0.49987000       0.07798000       0.56246000 </v>
    <v>       0.24987000       0.92202000       0.56246000 </v>
    <v>       0.25013000       0.07798000       0.81246000 </v>
    <v>       0.00013000       0.92202000       0.81246000 </v>
    <v>       0.99987000       0.07798000       0.56246000 </v>
    <v>       0.74987000       0.92202000       0.56246000 </v>
    <v>       0.75013000       0.07798000       0.81246000 </v>
    <v>       0.50013000       0.92202000       0.81246000 </v>
   </varray>
  </structure>
  <varray name="forces" >
   <v>      -0.53996493      -0.00286454       0.29803177 </v>
   <v>       0.04239263      -0.00361346       0.20138625 </v>
   <v>      -0.19341042       0.05800176       0.34972095 </v>
   <v>      -0.20782709       0.06416536      -0.36257045 </v>
   <v>       0.53228669       0.00083725      -0.21046772 </v>
   <v>      -0.02201483      -0.00060511      -0.30020415 </v>
   <v>       0.19495914      -0.06424462       0.34907093 </v>
   <v>       0.20660056       0.06085660      -0.33986292 </v>
   <v>      -0.09328281      -0.00666387      -0.52690816 </v>
   <v>       1.09249387       0.00860933      -0.38740334 </v>
   <v>       0.04314411      -0.01159216       0.48400308 </v>
   <v>      -1.05829375       0.00045197       0.60654986 </v>
   <v>       0.31958563       0.01606801       0.23004638 </v>
   <v>      -0.18800052       0.01221104       0.19059578 </v>
   <v>      -0.13999983      -1.02903949       0.13537673 </v>
   <v>      -0.18798660      -0.02017204      -0.02007763 </v>
   <v>       0.02993251      -0.00784544       0.15003842 </v>
   <v>      -0.18270583      -0.00813211       0.18678726 </v>
   <v>       0.05536076       0.03697650      -0.05805725 </v>
   <v>       0.29475129       1.01351232       0.10019066 </v>
   <v>       0.26977467       0.04171380      -0.47478533 </v>
   <v>       0.05588359       1.04168512      -0.28886918 </v>
   <v>       0.05010509      -0.08417054      -0.04804528 </v>
   <v>      -0.18138644       0.05993581      -0.00666354 </v>
   <v>      -0.43368549       0.02794438      -0.14171247 </v>
   <v>       0.08293208      -1.08940341      -0.32173838 </v>
   <v>      -0.16698765       1.01229896       0.17178112 </v>
   <v>       0.32480750      -1.01496288       0.12432140 </v>
   <v>       0.05841253       0.18456234      -0.18851909 </v>
   <v>      -0.14164001      -0.14466067      -0.28386567 </v>
   <v>       0.18402132       0.22965961       0.00921304 </v>
   <v>       0.12050327      -0.23212907      -0.11863144 </v>
   <v>       0.06058266       0.10427951      -0.17861073 </v>
   <v>       0.02058191      -0.14605266      -0.08565855 </v>
   <v>      -0.19221633       0.19754827      -0.01001122 </v>
   <v>      -0.10481453      -0.19402342       0.09529683 </v>
   <v>      -0.05954940       0.14791045       0.19447773 </v>
   <v>      -0.23782697      -0.12484828       0.30069782 </v>
   <v>       0.17514703       0.05084690      -0.01097956 </v>
   <v>      -0.08759859      -0.09653298       0.10009255 </v>
   <v>      -0.04356559       0.10837247       0.19055422 </v>
   <v>       0.33595304      -0.11891062       0.08873201 </v>
   <v>      -0.18817485       0.06031296      -0.00925021 </v>
   <v>       0.09995813      -0.01413456      -0.10050208 </v>
   <v>      -1.01969864       0.05813284       0.06782555 </v>
   <v>       1.14033160      -0.09291399      -0.01588695 </v>
   <v>       0.65404662       0.88177388      -0.65672244 </v>
   <v>      -0.74760118      -0.82677306      -0.59001686 </v>
   <v>      -1.20104297       0.03339675      -0.10055454 </v>
   <v>       1.12282259       0.01569540      -0.03274842 </v>
   <v>      -0.07878729      -0.02850181       0.08088910 </v>
   <v>       0.15562171      -0.02487822       0.00419445 </v>
   <v>       1.34103922      -0.00725405      -0.03930415 </v>
   <v>      -0.51126951      -0.97765134       0.60861738 </v>
   <v>      -0.07439638       0.28121990       0.04048518 </v>
   <v>      -0.81304260       0.71686711      -0.61024826 </v>
   <v>      -0.34750890      -0.02286292       1.28916815 </v>
   <v>      -0.46446059       0.86575611       0.64268486 </v>
   <v>       0.68460405      -0.77550265      -0.72284830 </v>
   <v>       0.16010468      -0.22066272      -0.04910518 </v>
  </varray>
  <varray name="stress" >
   <v>     -10.67850926      -0.25078770       0.61131683 </v>
   <v>      -0.25078759     -13.66503037       0.00493873 </v>
   <v>       0.61131703       0.00493864      -8.27802463 </v>
  </varray>
  <energy>
   <i name="e_fr_energy">   -307.07171164 </i>
   <i name="e_wo_entrp">   -307.07171164 </i>
   <i name="e_0_energy">      0.00000000 </i>
  </energy>
  <time name="totalsc"> 1461.76 1474.96</time>
  <eigenvalues>
   <array>
    <dimension dim="1">band</dimension>
    <dimension dim="2">kpoint</dimension>
    <dimension dim="3">spin</dimension>
    <field>eigene</field>
    <field>occ</field>
    <set>
     <set comment="spin 1">
      <set comment="kpoint 1">
       <r>  -40.5414    1.0000 </r>
       <r>  -40.0369    1.0000 </r>
       <r>  -39.7949    1.0000 </r>
       <r>  -39.7786    1.0000 </r>
       <r>  -39.7042    1.0000 </r>
       <r>  -39.6088    1.0000 </r>
       <r>  -39.3499    1.0000 </r>
       <r>  -39.3408    1.0000 </r>
       <r>  -19.0146    1.0000 </r>
       <r>  -18.9471    1.0000 </r>
       <r>  -18.9406    1.0000 </r>
       <r>  -18.9342    1.0000 </r>
       <r>  -18.9325    1.0000 </r>
       <r>  -18.8767    1.0000 </r>
       <r>  -18.8700    1.0000 </r>
       <r>  -18.8593    1.0000 </r>
       <r>  -18.8508    1.0000 </r>
       <r>  -18.8422    1.0000 </r>
       <r>  -18.8234    1.0000 </r>
       <r>  -18.7711    1.0000 </r>
       <r>  -18.7646    1.0000 </r>
       <r>  -18.7583    1.0000 </r>
       <r>  -18.7427    1.0000 </r>
       <r>  -18.7240    1.0000 </r>
       <r>  -18.7127    1.0000 </r>
       <r>  -18.7105    1.0000 </r>
       <r>  -18.7060    1.0000 </r>
       <r>  -18.7012    1.0000 </r>
       <r>  -18.6863    1.0000 </r>
       <r>  -18.6825    1.0000 </r>
       <r>  -18.6748    1.0000 </r>
       <r>  -18.6696    1.0000 </r>
       <r>  -18.6664    1.0000 </r>
       <r>  -18.6655    1.0000 </r>
       <r>  -18.6619    1.0000 </r>
       <r>  -18.6581    1.0000 </r>
       <r>  -18.6570    1.0000 </r>
       <r>  -18.6549    1.0000 </r>
       <r>  -18.6540    1.0000 </r>
       <r>  -18.6497    1.0000 </r>
       <r>  -18.6466    1.0000 </r>
       <r>  -18.6404    1.0000 </r>
       <r>  -18.6361    1.0000 </r>
       <r>  -18.6327    1.0000 </r>
       <r>  -18.6201    1.0000 </r>
       <r>  -18.6137    1.0000 </r>
       <r>  -18.6044    1.0000 </r>
       <r>  -18.5838    1.0000 </r>
       <r>  -18.5737    1.0000 </r>
       <r>  -18.5704    1.0000 </r>
       <r>  -18.5670    1.0000 </r>
       <r>  -18.5641    1.0000 </r>
       <r>  -18.5600    1.0000 </r>
       <r>  -18.5557    1.0000 </r>
       <r>  -18.5487    1.0000 </r>
       <r>  -18.5444    1.0000 </r>
       <r>  -18.5334    1.0000 </r>
       <r>  -18.5190    1.0000 </r>
       <r>  -18.5168    1.0000 </r>
       <r>  -18.5071    1.0000 </r>
       <r>  -18.5037    1.0000 </r>
       <r>  -18.5031    1.0000 </r>
       <r>  -18.5027    1.0000 </r>
       <r>  -18.4955    1.0000 </r>
       <r>  -18.4914    1.0000 </r>
       <r>  -18.4867    1.0000 </r>
       <r>  -18.4859    1.0000 </r>
       <r>  -18.4732    1.0000 </r>
       <r>  -18.4512    1.0000 </r>
       <r>  -18.4171    1.0000 </r>
       <r>  -18.4148    1.0000 </r>
       <r>  -18.4128    1.0000 </r>
       <r>  -18.4043    1.0000 </r>
       <r>  -18.4009    1.0000 </r>
       <r>  -18.3990    1.0000 </r>
       <r>  -18.3973    1.0000 </r>
       <r>  -18.3862    1.0000 </r>
       <r>  -18.3397    1.0000 </r>
       <r>  -18.3274    1.0000 </r>
       <r>  -18.3204    1.0000 </r>
       <r>  -18.3109    1.0000 </r>
       <r>  -18.2446    1.0000 </r>
       <r>  -18.2071    1.0000 </r>
       <r>  -18.2005    1.0000 </r>
       <r>  -18.1868    1.0000 </r>
       <r>  -18.1782    1.0000 </r>
       <r>  -18.1283    1.0000 </r>
       <r>  -18.1182    1.0000 </r>
       <r>  -13.6681    1.0000 </r>
       <r>  -13.5238    1.0000 </r>
       <r>  -13.5033    1.0000 </r>
       <r>  -12.8886    1.0000 </r>
       <r>  -12.8277    1.0000 </r>
       <r>  -12.7802    1.0000 </r>
       <r>  -12.7511    1.0000 </r>
       <r>  -12.7273    1.0000 </r>
       <r>  -12.7146    1.0000 </r>
       <r>  -12.6684    1.0000 </r>
       <r>  -12.6508    1.0000 </r>
       <r>  -12.5882    1.0000 </r>
       <r>  -12.5608    1.0000 </r>
       <r>  -12.0025    1.0000 </r>
       <r>  -11.9435    1.0000 </r>
       <r>  -11.8545    1.0000 </r>
       <r>   -9.3515    1.0000 </r>
       <r>   -9.0582    1.0000 </r>
       <r>   -8.5386    1.0000 </r>
       <r>   -8.5375    1.0000 </r>
       <r>   -8.4796    1.0000 </r>
       <r>   -8.4750    1.0000 </r>
       <r>   -8.3162    1.0000 </r>
       <r>   -8.3143    1.0000 </r>
       <r>   -8.2614    1.0000 </r>
       <r>   -8.2499    1.0000 </r>
       <r>   -8.0370    1.0000 </r>
       <r>   -8.0131    1.0000 </r>
       <r>   -8.0034    1.0000 </r>
       <r>   -7.9684    1.0000 </r>
       <r>   -7.3652    1.0000 </r>
       <r>   -7.3595    1.0000 </r>
       <r>   -6.3926    1.0000 </r>
       <r>   -6.3908    1.0000 </r>
       <r>   -6.3610    1.0000 </r>
       <r>   -6.3579    1.0000 </r>
       <r>   -5.5542    1.0000 </r>
       <r>   -5.5495    1.0000 </r>
       <r>   -5.3817    1.0000 </r>
       <r>   -5.3596    1.0000 </r>
       <r>   -5.2866    1.0000 </r>
       <r>   -5.2786    1.0000 </r>
       <r>   -5.2026    1.0000 </r>
       <r>   -5.1619    1.0000 </r>
       <r>   -5.0894    1.0000 </r>
       <r>   -5.0610    1.0000 </r>
       <r>   -3.8087    1.0000 </r>
       <r>   -3.6558    1.0000 </r>
       <r>   -1.5126    1.0000 </r>
       <r>   -1.3171    1.0000 </r>
       <r>   -1.1410    1.0000 </r>
       <r>   -1.0048    1.0000 </r>
       <r>   -0.5672    1.0000 </r>
       <r>   -0.5591    1.0000 </r>
       <r>   -0.5150    1.0000 </r>
       <r>   -0.5105    1.0000 </r>
       <r>   -0.1936    1.0000 </r>
       <r>   -0.1863    1.0000 </r>
       <r>   -0.1793    1.0000 </r>
       <r>   -0.1717    1.0000 </r>
       <r>   -0.0237    1.0000 </r>
       <r>    0.0145    1.0000 </r>
       <r>    0.1671    1.0000 </r>
       <r>    0.3250    1.0000 </r>
       <r>    0.3859    1.0000 </r>
       <r>    0.4885    1.0000 </r>
       <r>    0.5327    1.0000 </r>
       <r>    0.5411    1.0000 </r>
       <r>    0.6305    1.0000 </r>
       <r>    0.7231    1.0000 </r>
       <r>    0.7350    1.0000 </r>
       <r>    0.7409    1.0000 </r>
       <r>    0.7678    1.0000 </r>
       <r>    0.8140    1.0000 </r>
       <r>    0.8701    1.0000 </r>
       <r>    0.9458    1.0000 </r>
       <r>    0.9707    1.0000 </r>
       <r>    0.9830    1.0000 </r>
       <r>    1.0319    1.0000 </r>
       <r>    1.0378    1.0000 </r>
       <r>    1.1052    1.0000 </r>
       <r>    1.1454    1.0000 </r>
       <r>    1.2065    1.0000 </r>
       <r>    1.2911    1.0000 </r>
       <r>    1.3109    1.0000 </r>
       <r>    1.3297    1.0000 </r>
       <r>    1.3507    1.0000 </r>
       <r>    1.4358    1.0000 </r>
       <r>    1.5266    1.0000 </r>
       <r>    1.5398    1.0000 </r>
       <r>    1.5669    1.0000 </r>
       <r>    1.5865    1.0000 </r>
       <r>    1.6462    1.0000 </r>
       <r>    1.7128    1.0000 </r>
       <r>    1.7621    1.0000 </r>
       <r>    1.8289    1.0000 </r>
       <r>    1.8629    1.0000 </r>
       <r>    1.8809    1.0000 </r>
       <r>    1.9909    1.0000 </r>
       <r>    2.0264    1.0000 </r>
       <r>    2.0934    1.0000 </r>
       <r>    2.1384    1.0000 </r>
       <r>    2.1922    1.0000 </r>
       <r>    2.2682    1.0000 </r>
       <r>    2.3299    1.0000 </r>
       <r>    2.3675    1.0000 </r>
       <r>    2.4716    1.0000 </r>
       <r>    2.5391    1.0000 </r>
       <r>    2.5492    1.0000 </r>
       <r>    2.5575    1.0000 </r>
       <r>    2.5661    1.0000 </r>
       <r>    2.5768    1.0000 </r>
       <r>    2.6090    1.0000 </r>
       <r>    2.6302    1.0000 </r>
       <r>    2.6841    1.0000 </r>
       <r>    2.7248    1.0000 </r>
       <r>    2.7514    1.0000 </r>
       <r>    2.7946    1.0000 </r>
       <r>    2.8329    1.0000 </r>
       <r>    2.8348    1.0000 </r>
       <r>    2.8603    1.0000 </r>
       <r>    2.9203    1.0000 </r>
       <r>    2.9546    1.0000 </r>
       <r>    2.9712    1.0000 </r>
       <r>    3.0242    1.0000 </r>
       <r>    3.0525    1.0000 </r>
       <r>    3.1110    1.0000 </r>
       <r>    3.1171    1.0000 </r>
       <r>    3.1414    1.0000 </r>
       <r>    3.1624    1.0000 </r>
       <r>    3.1870    1.0000 </r>
       <r>    3.2097    1.0000 </r>
       <r>    3.2183    1.0000 </r>
       <r>    3.2942    1.0000 </r>
       <r>    3.3317    1.0000 </r>
       <r>    3.3736    1.0000 </r>
       <r>    3.4102    1.0000 </r>
       <r>    3.4302    1.0000 </r>
       <r>    3.5652    1.0000 </r>
       <r>    3.7166    1.0000 </r>
       <r>    4.1727    1.0000 </r>
       <r>    4.1933    1.0000 </r>
       <r>    4.2287    1.0000 </r>
       <r>    4.2369    1.0000 </r>
       <r>    5.0117    0.0000 </r>
       <r>    5.0206    0.0000 </r>
       <r>    5.1612    0.0000 </r>
       <r>    5.1816    0.0000 </r>
       <r>    5.7091    0.0000 </r>
       <r>    5.7142    0.0000 </r>
       <r>    5.8013    0.0000 </r>
       <r>    5.8230    0.0000 </r>
       <r>    6.1115    0.0000 </r>
       <r>    6.1124    0.0000 </r>
       <r>    6.1327    0.0000 </r>
       <r>    6.1439    0.0000 </r>
       <r>    6.2411    0.0000 </r>
       <r>    6.2518    0.0000 </r>
       <r>    6.2594    0.0000 </r>
       <r>    6.2718    0.0000 </r>
       <r>    7.0334    0.0000 </r>
       <r>    7.0429    0.0000 </r>
       <r>    7.2727    0.0000 </r>
       <r>    7.3051    0.0000 </r>
       <r>    7.7577    0.0000 </r>
       <r>    7.8259    0.0000 </r>
       <r>    7.8818    0.0000 </r>
       <r>    7.9490    0.0000 </r>
       <r>    7.9561    0.0000 </r>
       <r>    8.0214    0.0000 </r>
       <r>    8.1025    0.0000 </r>
       <r>    8.1300    0.0000 </r>
       <r>    8.3702    0.0000 </r>
       <r>    8.6282    0.0000 </r>
       <r>    8.6803    0.0000 </r>
       <r>    8.7866    0.0000 </r>
       <r>    8.8005    0.0000 </r>
       <r>    8.8115    0.0000 </r>
       <r>    8.9042    0.0000 </r>
       <r>    8.9418    0.0000 </r>
       <r>    9.0062    0.0000 </r>
       <r>    9.0404    0.0000 </r>
       <r>    9.0475    0.0000 </r>
       <r>    9.1271    0.0000 </r>
       <r>    9.1361    0.0000 </r>
       <r>    9.1722    0.0000 </r>
       <r>    9.2108    0.0000 </r>
       <r>    9.2357    0.0000 </r>
       <r>    9.3859    0.0000 </r>
       <r>    9.4775    0.0000 </r>
       <r>    9.5750    0.0000 </r>
       <r>    9.7374    0.0000 </r>
      </set>
      <set comment="kpoint 2">
       <r>  -40.5414    1.0000 </r>
       <r>  -40.0369    1.0000 </r>
       <r>  -39.7949    1.0000 </r>
       <r>  -39.7786    1.0000 </r>
       <r>  -39.7042    1.0000 </r>
       <r>  -39.6088    1.0000 </r>
       <r>  -39.3499    1.0000 </r>
       <r>  -39.3408    1.0000 </r>
       <r>  -19.0146    1.0000 </r>
       <r>  -18.9471    1.0000 </r>
       <r>  -18.9406    1.0000 </r>
       <r>  -18.9342    1.0000 </r>
       <r>  -18.9325    1.0000 </r>
       <r>  -18.8765    1.0000 </r>
       <r>  -18.8699    1.0000 </r>
       <r>  -18.8594    1.0000 </r>
       <r>  -18.8508    1.0000 </r>
       <r>  -18.8422    1.0000 </r>
       <r>  -18.8234    1.0000 </r>
       <r>  -18.7711    1.0000 </r>
       <r>  -18.7646    1.0000 </r>
       <r>  -18.7583    1.0000 </r>
       <r>  -18.7427    1.0000 </r>
       <r>  -18.7241    1.0000 </r>
       <r>  -18.7127    1.0000 </r>
       <r>  -18.7105    1.0000 </r>
       <r>  -18.7059    1.0000 </r>
       <r>  -18.7013    1.0000 </r>
       <r>  -18.6863    1.0000 </r>
       <r>  -18.6777    1.0000 </r>
       <r>  -18.6759    1.0000 </r>
       <r>  -18.6715    1.0000 </r>
       <r>  -18.6663    1.0000 </r>
       <r>  -18.6638    1.0000 </r>
       <r>  -18.6619    1.0000 </r>
       <r>  -18.6604    1.0000 </r>
       <r>  -18.6584    1.0000 </r>
       <r>  -18.6575    1.0000 </r>
       <r>  -18.6567    1.0000 </r>
       <r>  -18.6511    1.0000 </r>
       <r>  -18.6441    1.0000 </r>
       <r>  -18.6404    1.0000 </r>
       <r>  -18.6344    1.0000 </r>
       <r>  -18.6262    1.0000 </r>
       <r>  -18.6204    1.0000 </r>
       <r>  -18.6167    1.0000 </r>
       <r>  -18.6050    1.0000 </r>
       <r>  -18.5839    1.0000 </r>
       <r>  -18.5737    1.0000 </r>
       <r>  -18.5703    1.0000 </r>
       <r>  -18.5670    1.0000 </r>
       <r>  -18.5641    1.0000 </r>
       <r>  -18.5600    1.0000 </r>
       <r>  -18.5557    1.0000 </r>
       <r>  -18.5487    1.0000 </r>
       <r>  -18.5444    1.0000 </r>
       <r>  -18.5334    1.0000 </r>
       <r>  -18.5190    1.0000 </r>
       <r>  -18.5168    1.0000 </r>
       <r>  -18.5071    1.0000 </r>
       <r>  -18.5036    1.0000 </r>
       <r>  -18.5032    1.0000 </r>
       <r>  -18.5027    1.0000 </r>
       <r>  -18.4955    1.0000 </r>
       <r>  -18.4915    1.0000 </r>
       <r>  -18.4867    1.0000 </r>
       <r>  -18.4859    1.0000 </r>
       <r>  -18.4732    1.0000 </r>
       <r>  -18.4512    1.0000 </r>
       <r>  -18.4171    1.0000 </r>
       <r>  -18.4148    1.0000 </r>
       <r>  -18.4129    1.0000 </r>
       <r>  -18.4042    1.0000 </r>
       <r>  -18.4008    1.0000 </r>
       <r>  -18.3989    1.0000 </r>
       <r>  -18.3973    1.0000 </r>
       <r>  -18.3862    1.0000 </r>
       <r>  -18.3397    1.0000 </r>
       <r>  -18.3274    1.0000 </r>
       <r>  -18.3204    1.0000 </r>
       <r>  -18.3108    1.0000 </r>
       <r>  -18.2446    1.0000 </r>
       <r>  -18.2071    1.0000 </r>
       <r>  -18.2005    1.0000 </r>
       <r>  -18.1868    1.0000 </r>
       <r>  -18.1782    1.0000 </r>
       <r>  -18.1283    1.0000 </r>
       <r>  -18.1182    1.0000 </r>
       <r>  -13.6673    1.0000 </r>
       <r>  -13.5244    1.0000 </r>
       <r>  -13.5035    1.0000 </r>
       <r>  -12.8819    1.0000 </r>
       <r>  -12.8384    1.0000 </r>
       <r>  -12.7771    1.0000 </r>
       <r>  -12.7570    1.0000 </r>
       <r>  -12.7282    1.0000 </r>
       <r>  -12.7028    1.0000 </r>
       <r>  -12.6646    1.0000 </r>
       <r>  -12.6587    1.0000 </r>
       <r>  -12.5877    1.0000 </r>
       <r>  -12.5612    1.0000 </r>
       <r>  -12.0025    1.0000 </r>
       <r>  -11.9439    1.0000 </r>
       <r>  -11.8542    1.0000 </r>
       <r>   -9.2068    1.0000 </r>
       <r>   -9.0492    1.0000 </r>
       <r>   -8.9337    1.0000 </r>
       <r>   -8.7725    1.0000 </r>
       <r>   -8.4118    1.0000 </r>
       <r>   -8.3962    1.0000 </r>
       <r>   -8.2732    1.0000 </r>
       <r>   -8.2617    1.0000 </r>
       <r>   -8.2090    1.0000 </r>
       <r>   -8.1997    1.0000 </r>
       <r>   -8.0729    1.0000 </r>
       <r>   -8.0606    1.0000 </r>
       <r>   -7.7548    1.0000 </r>
       <r>   -7.6472    1.0000 </r>
       <r>   -7.6361    1.0000 </r>
       <r>   -7.5279    1.0000 </r>
       <r>   -6.0578    1.0000 </r>
       <r>   -6.0366    1.0000 </r>
       <r>   -5.9410    1.0000 </r>
       <r>   -5.8556    1.0000 </r>
       <r>   -5.8351    1.0000 </r>
       <r>   -5.8134    1.0000 </r>
       <r>   -5.7143    1.0000 </r>
       <r>   -5.6895    1.0000 </r>
       <r>   -5.6560    1.0000 </r>
       <r>   -5.6218    1.0000 </r>
       <r>   -5.4894    1.0000 </r>
       <r>   -5.4299    1.0000 </r>
       <r>   -4.5074    1.0000 </r>
       <r>   -4.3496    1.0000 </r>
       <r>   -4.3405    1.0000 </r>
       <r>   -4.1750    1.0000 </r>
       <r>   -1.2740    1.0000 </r>
       <r>   -1.0848    1.0000 </r>
       <r>   -0.9131    1.0000 </r>
       <r>   -0.7398    1.0000 </r>
       <r>   -0.5528    1.0000 </r>
       <r>   -0.3968    1.0000 </r>
       <r>   -0.0912    1.0000 </r>
       <r>   -0.0517    1.0000 </r>
       <r>    0.0031    1.0000 </r>
       <r>    0.0250    1.0000 </r>
       <r>    0.0737    1.0000 </r>
       <r>    0.1580    1.0000 </r>
       <r>    0.1841    1.0000 </r>
       <r>    0.2253    1.0000 </r>
       <r>    0.3155    1.0000 </r>
       <r>    0.3570    1.0000 </r>
       <r>    0.4099    1.0000 </r>
       <r>    0.4754    1.0000 </r>
       <r>    0.5190    1.0000 </r>
       <r>    0.5645    1.0000 </r>
       <r>    0.5983    1.0000 </r>
       <r>    0.6268    1.0000 </r>
       <r>    0.6382    1.0000 </r>
       <r>    0.6822    1.0000 </r>
       <r>    0.6956    1.0000 </r>
       <r>    0.7634    1.0000 </r>
       <r>    0.7719    1.0000 </r>
       <r>    0.8323    1.0000 </r>
       <r>    0.9144    1.0000 </r>
       <r>    0.9923    1.0000 </r>
       <r>    1.0380    1.0000 </r>
       <r>    1.0779    1.0000 </r>
       <r>    1.2133    1.0000 </r>
       <r>    1.2204    1.0000 </r>
       <r>    1.2297    1.0000 </r>
       <r>    1.2559    1.0000 </r>
       <r>    1.2711    1.0000 </r>
       <r>    1.3015    1.0000 </r>
       <r>    1.3673    1.0000 </r>
       <r>    1.3951    1.0000 </r>
       <r>    1.4492    1.0000 </r>
       <r>    1.4662    1.0000 </r>
       <r>    1.4822    1.0000 </r>
       <r>    1.5609    1.0000 </r>
       <r>    1.6109    1.0000 </r>
       <r>    1.6558    1.0000 </r>
       <r>    1.6767    1.0000 </r>
       <r>    1.7568    1.0000 </r>
       <r>    1.7897    1.0000 </r>
       <r>    1.8493    1.0000 </r>
       <r>    1.8601    1.0000 </r>
       <r>    1.9009    1.0000 </r>
       <r>    2.0144    1.0000 </r>
       <r>    2.0235    1.0000 </r>
       <r>    2.0419    1.0000 </r>
       <r>    2.1148    1.0000 </r>
       <r>    2.1227    1.0000 </r>
       <r>    2.1738    1.0000 </r>
       <r>    2.2235    1.0000 </r>
       <r>    2.2583    1.0000 </r>
       <r>    2.2797    1.0000 </r>
       <r>    2.3708    1.0000 </r>
       <r>    2.3939    1.0000 </r>
       <r>    2.4821    1.0000 </r>
       <r>    2.5069    1.0000 </r>
       <r>    2.5270    1.0000 </r>
       <r>    2.5794    1.0000 </r>
       <r>    2.5955    1.0000 </r>
       <r>    2.6003    1.0000 </r>
       <r>    2.6492    1.0000 </r>
       <r>    2.6967    1.0000 </r>
       <r>    2.7311    1.0000 </r>
       <r>    2.7913    1.0000 </r>
       <r>    2.8027    1.0000 </r>
       <r>    2.8393    1.0000 </r>
       <r>    2.8438    1.0000 </r>
       <r>    2.9050    1.0000 </r>
       <r>    2.9443    1.0000 </r>
       <r>    3.0222    1.0000 </r>
       <r>    3.0309    1.0000 </r>
       <r>    3.0719    1.0000 </r>
       <r>    3.1048    1.0000 </r>
       <r>    3.1376    1.0000 </r>
       <r>    3.1602    1.0000 </r>
       <r>    3.1985    1.0000 </r>
       <r>    3.2813    1.0000 </r>
       <r>    3.3173    1.0000 </r>
       <r>    3.4222    1.0000 </r>
       <r>    3.4449    1.0000 </r>
       <r>    3.5032    1.0000 </r>
       <r>    3.5301    1.0000 </r>
       <r>    3.5488    1.0000 </r>
       <r>    3.6283    1.0000 </r>
       <r>    3.6694    1.0000 </r>
       <r>    3.7660    1.0000 </r>
       <r>    3.8219    1.0000 </r>
       <r>    5.5457    0.0000 </r>
       <r>    5.5519    0.0000 </r>
       <r>    5.7014    0.0000 </r>
       <r>    5.7100    0.0000 </r>
       <r>    5.7336    0.0000 </r>
       <r>    5.7420    0.0000 </r>
       <r>    5.8977    0.0000 </r>
       <r>    5.8978    0.0000 </r>
       <r>    7.1325    0.0000 </r>
       <r>    7.1648    0.0000 </r>
       <r>    7.2120    0.0000 </r>
       <r>    7.2830    0.0000 </r>
       <r>    7.3445    0.0000 </r>
       <r>    7.3762    0.0000 </r>
       <r>    7.4133    0.0000 </r>
       <r>    7.4328    0.0000 </r>
       <r>    7.4511    0.0000 </r>
       <r>    7.4895    0.0000 </r>
       <r>    7.5929    0.0000 </r>
       <r>    7.6087    0.0000 </r>
       <r>    7.7962    0.0000 </r>
       <r>    7.8049    0.0000 </r>
       <r>    7.8346    0.0000 </r>
       <r>    7.8577    0.0000 </r>
       <r>    7.8898    0.0000 </r>
       <r>    7.9010    0.0000 </r>
       <r>    7.9155    0.0000 </r>
       <r>    7.9677    0.0000 </r>
       <r>    7.9857    0.0000 </r>
       <r>    8.0144    0.0000 </r>
       <r>    8.0283    0.0000 </r>
       <r>    8.1403    0.0000 </r>
       <r>    8.2489    0.0000 </r>
       <r>    8.3420    0.0000 </r>
       <r>    8.4460    0.0000 </r>
       <r>    8.5133    0.0000 </r>
       <r>    8.6492    0.0000 </r>
       <r>    8.7269    0.0000 </r>
       <r>    8.7382    0.0000 </r>
       <r>    8.7497    0.0000 </r>
       <r>    8.7640    0.0000 </r>
       <r>    8.8558    0.0000 </r>
       <r>    8.9244    0.0000 </r>
       <r>    8.9405    0.0000 </r>
       <r>    9.0860    0.0000 </r>
       <r>    9.2669    0.0000 </r>
       <r>    9.3038    0.0000 </r>
       <r>    9.3534    0.0000 </r>
      </set>
      <set comment="kpoint 3">
       <r>  -40.5414    1.0000 </r>
       <r>  -40.0369    1.0000 </r>
       <r>  -39.7949    1.0000 </r>
       <r>  -39.7786    1.0000 </r>
       <r>  -39.7042    1.0000 </r>
       <r>  -39.6088    1.0000 </r>
       <r>  -39.3499    1.0000 </r>
       <r>  -39.3408    1.0000 </r>
       <r>  -19.0146    1.0000 </r>
       <r>  -18.9471    1.0000 </r>
       <r>  -18.9406    1.0000 </r>
       <r>  -18.9342    1.0000 </r>
       <r>  -18.9325    1.0000 </r>
       <r>  -18.8767    1.0000 </r>
       <r>  -18.8700    1.0000 </r>
       <r>  -18.8593    1.0000 </r>
       <r>  -18.8508    1.0000 </r>
       <r>  -18.8422    1.0000 </r>
       <r>  -18.8234    1.0000 </r>
       <r>  -18.7711    1.0000 </r>
       <r>  -18.7646    1.0000 </r>
       <r>  -18.7583    1.0000 </r>
       <r>  -18.7427    1.0000 </r>
       <r>  -18.7240    1.0000 </r>
       <r>  -18.7127    1.0000 </r>
       <r>  -18.7105    1.0000 </r>
       <r>  -18.7060    1.0000 </r>
       <r>  -18.7012    1.0000 </r>
       <r>  -18.6863    1.0000 </r>
       <r>  -18.6825    1.0000 </r>
       <r>  -18.6748    1.0000 </r>
       <r>  -18.6696    1.0000 </r>
       <r>  -18.6663    1.0000 </r>
       <r>  -18.6655    1.0000 </r>
       <r>  -18.6619    1.0000 </r>
       <r>  -18.6581    1.0000 </r>
       <r>  -18.6570    1.0000 </r>
       <r>  -18.6549    1.0000 </r>
       <r>  -18.6540    1.0000 </r>
       <r>  -18.6497    1.0000 </r>
       <r>  -18.6466    1.0000 </r>
       <r>  -18.6404    1.0000 </r>
       <r>  -18.6361    1.0000 </r>
       <r>  -18.6327    1.0000 </r>
       <r>  -18.6201    1.0000 </r>
       <r>  -18.6137    1.0000 </r>
       <r>  -18.6044    1.0000 </r>
       <r>  -18.5838    1.0000 </r>
       <r>  -18.5737    1.0000 </r>
       <r>  -18.5704    1.0000 </r>
       <r>  -18.5670    1.0000 </r>
       <r>  -18.5641    1.0000 </r>
       <r>  -18.5600    1.0000 </r>
       <r>  -18.5557    1.0000 </r>
       <r>  -18.5487    1.0000 </r>
       <r>  -18.5444    1.0000 </r>
       <r>  -18.5334    1.0000 </r>
       <r>  -18.5190    1.0000 </r>
       <r>  -18.5168    1.0000 </r>
       <r>  -18.5071    1.0000 </r>
       <r>  -18.5037    1.0000 </r>
       <r>  -18.5031    1.0000 </r>
       <r>  -18.5027    1.0000 </r>
       <r>  -18.4955    1.0000 </r>
       <r>  -18.4914    1.0000 </r>
       <r>  -18.4867    1.0000 </r>
       <r>  -18.4859    1.0000 </r>
       <r>  -18.4732    1.0000 </r>
       <r>  -18.4512    1.0000 </r>
       <r>  -18.4171    1.0000 </r>
       <r>  -18.4148    1.0000 </r>
       <r>  -18.4128    1.0000 </r>
       <r>  -18.4043    1.0000 </r>
       <r>  -18.4009    1.0000 </r>
       <r>  -18.3990    1.0000 </r>
       <r>  -18.3973    1.0000 </r>
       <r>  -18.3862    1.0000 </r>
       <r>  -18.3397    1.0000 </r>
       <r>  -18.3274    1.0000 </r>
       <r>  -18.3204    1.0000 </r>
       <r>  -18.3109    1.0000 </r>
       <r>  -18.2446    1.0000 </r>
       <r>  -18.2071    1.0000 </r>
       <r>  -18.2005    1.0000 </r>
       <r>  -18.1868    1.0000 </r>
       <r>  -18.1782    1.0000 </r>
       <r>  -18.1283    1.0000 </r>
       <r>  -18.1182    1.0000 </r>
       <r>  -13.6678    1.0000 </r>
       <r>  -13.5238    1.0000 </r>
       <r>  -13.5035    1.0000 </r>
       <r>  -12.8871    1.0000 </r>
       <r>  -12.8273    1.0000 </r>
       <r>  -12.7805    1.0000 </r>
       <r>  -12.7510    1.0000 </r>
       <r>  -12.7277    1.0000 </r>
       <r>  -12.7148    1.0000 </r>
       <r>  -12.6686    1.0000 </r>
       <r>  -12.6508    1.0000 </r>
       <r>  -12.5892    1.0000 </r>
       <r>  -12.5613    1.0000 </r>
       <r>  -12.0022    1.0000 </r>
       <r>  -11.9436    1.0000 </r>
       <r>  -11.8558    1.0000 </r>
       <r>   -9.3418    1.0000 </r>
       <r>   -9.0647    1.0000 </r>
       <r>   -8.5565    1.0000 </r>
       <r>   -8.5555    1.0000 </r>
       <r>   -8.4969    1.0000 </r>
       <r>   -8.4918    1.0000 </r>
       <r>   -8.2962    1.0000 </r>
       <r>   -8.2949    1.0000 </r>
       <r>   -8.2431    1.0000 </r>
       <r>   -8.2309    1.0000 </r>
       <r>   -8.0410    1.0000 </r>
       <r>   -8.0163    1.0000 </r>
       <r>   -8.0061    1.0000 </r>
       <r>   -7.9709    1.0000 </r>
       <r>   -7.3680    1.0000 </r>
       <r>   -7.3622    1.0000 </r>
       <r>   -6.3826    1.0000 </r>
       <r>   -6.3812    1.0000 </r>
       <r>   -6.3529    1.0000 </r>
       <r>   -6.3471    1.0000 </r>
       <r>   -5.5580    1.0000 </r>
       <r>   -5.5538    1.0000 </r>
       <r>   -5.4184    1.0000 </r>
       <r>   -5.4010    1.0000 </r>
       <r>   -5.3088    1.0000 </r>
       <r>   -5.3018    1.0000 </r>
       <r>   -5.1472    1.0000 </r>
       <r>   -5.1215    1.0000 </r>
       <r>   -5.0400    1.0000 </r>
       <r>   -5.0183    1.0000 </r>
       <r>   -3.8819    1.0000 </r>
       <r>   -3.5710    1.0000 </r>
       <r>   -1.3937    1.0000 </r>
       <r>   -1.3030    1.0000 </r>
       <r>   -1.2744    1.0000 </r>
       <r>   -1.0619    1.0000 </r>
       <r>   -0.4797    1.0000 </r>
       <r>   -0.4611    1.0000 </r>
       <r>   -0.4256    1.0000 </r>
       <r>   -0.4183    1.0000 </r>
       <r>   -0.3859    1.0000 </r>
       <r>   -0.3729    1.0000 </r>
       <r>   -0.3087    1.0000 </r>
       <r>   -0.3031    1.0000 </r>
       <r>   -0.1864    1.0000 </r>
       <r>   -0.0728    1.0000 </r>
       <r>   -0.0393    1.0000 </r>
       <r>    0.1789    1.0000 </r>
       <r>    0.2554    1.0000 </r>
       <r>    0.2771    1.0000 </r>
       <r>    0.3387    1.0000 </r>
       <r>    0.4216    1.0000 </r>
       <r>    0.5315    1.0000 </r>
       <r>    0.5725    1.0000 </r>
       <r>    0.6946    1.0000 </r>
       <r>    0.7180    1.0000 </r>
       <r>    0.7377    1.0000 </r>
       <r>    0.7969    1.0000 </r>
       <r>    0.8225    1.0000 </r>
       <r>    0.8313    1.0000 </r>
       <r>    0.9283    1.0000 </r>
       <r>    0.9945    1.0000 </r>
       <r>    1.0534    1.0000 </r>
       <r>    1.0718    1.0000 </r>
       <r>    1.2263    1.0000 </r>
       <r>    1.2750    1.0000 </r>
       <r>    1.3141    1.0000 </r>
       <r>    1.3470    1.0000 </r>
       <r>    1.4065    1.0000 </r>
       <r>    1.4851    1.0000 </r>
       <r>    1.5020    1.0000 </r>
       <r>    1.5271    1.0000 </r>
       <r>    1.6262    1.0000 </r>
       <r>    1.6489    1.0000 </r>
       <r>    1.6837    1.0000 </r>
       <r>    1.7118    1.0000 </r>
       <r>    1.7794    1.0000 </r>
       <r>    1.8928    1.0000 </r>
       <r>    1.9179    1.0000 </r>
       <r>    1.9491    1.0000 </r>
       <r>    2.0207    1.0000 </r>
       <r>    2.0416    1.0000 </r>
       <r>    2.0606    1.0000 </r>
       <r>    2.1346    1.0000 </r>
       <r>    2.1958    1.0000 </r>
       <r>    2.2159    1.0000 </r>
       <r>    2.2613    1.0000 </r>
       <r>    2.3657    1.0000 </r>
       <r>    2.3889    1.0000 </r>
       <r>    2.4501    1.0000 </r>
       <r>    2.4655    1.0000 </r>
       <r>    2.5042    1.0000 </r>
       <r>    2.5424    1.0000 </r>
       <r>    2.5573    1.0000 </r>
       <r>    2.5658    1.0000 </r>
       <r>    2.5743    1.0000 </r>
       <r>    2.5889    1.0000 </r>
       <r>    2.5988    1.0000 </r>
       <r>    2.6284    1.0000 </r>
       <r>    2.6845    1.0000 </r>
       <r>    2.7173    1.0000 </r>
       <r>    2.7628    1.0000 </r>
       <r>    2.8149    1.0000 </r>
       <r>    2.8501    1.0000 </r>
       <r>    2.8764    1.0000 </r>
       <r>    2.9177    1.0000 </r>
       <r>    2.9398    1.0000 </r>
       <r>    2.9678    1.0000 </r>
       <r>    2.9827    1.0000 </r>
       <r>    3.0174    1.0000 </r>
       <r>    3.0408    1.0000 </r>
       <r>    3.0528    1.0000 </r>
       <r>    3.0920    1.0000 </r>
       <r>    3.1618    1.0000 </r>
       <r>    3.2866    1.0000 </r>
       <r>    3.3360    1.0000 </r>
       <r>    3.3551    1.0000 </r>
       <r>    3.3800    1.0000 </r>
       <r>    3.4188    1.0000 </r>
       <r>    3.4486    1.0000 </r>
       <r>    3.4747    1.0000 </r>
       <r>    3.4838    1.0000 </r>
       <r>    3.5794    1.0000 </r>
       <r>    3.6750    1.0000 </r>
       <r>    4.2209    1.0000 </r>
       <r>    4.2440    1.0000 </r>
       <r>    4.2846    1.0000 </r>
       <r>    4.2850    1.0000 </r>
       <r>    5.0879    0.0000 </r>
       <r>    5.0972    0.0000 </r>
       <r>    5.2268    0.0000 </r>
       <r>    5.2402    0.0000 </r>
       <r>    5.7172    0.0000 </r>
       <r>    5.7234    0.0000 </r>
       <r>    5.8098    0.0000 </r>
       <r>    5.8309    0.0000 </r>
       <r>    6.1614    0.0000 </r>
       <r>    6.1698    0.0000 </r>
       <r>    6.1835    0.0000 </r>
       <r>    6.1845    0.0000 </r>
       <r>    6.2574    0.0000 </r>
       <r>    6.2625    0.0000 </r>
       <r>    6.2724    0.0000 </r>
       <r>    6.2912    0.0000 </r>
       <r>    6.6863    0.0000 </r>
       <r>    6.7356    0.0000 </r>
       <r>    6.9458    0.0000 </r>
       <r>    7.0413    0.0000 </r>
       <r>    7.1903    0.0000 </r>
       <r>    7.3356    0.0000 </r>
       <r>    7.4243    0.0000 </r>
       <r>    7.4650    0.0000 </r>
       <r>    7.8096    0.0000 </r>
       <r>    7.8494    0.0000 </r>
       <r>    7.8809    0.0000 </r>
       <r>    7.9804    0.0000 </r>
       <r>    7.9971    0.0000 </r>
       <r>    8.3492    0.0000 </r>
       <r>    8.3696    0.0000 </r>
       <r>    8.4273    0.0000 </r>
       <r>    8.6266    0.0000 </r>
       <r>    8.7523    0.0000 </r>
       <r>    8.9003    0.0000 </r>
       <r>    8.9569    0.0000 </r>
       <r>    8.9883    0.0000 </r>
       <r>    9.0283    0.0000 </r>
       <r>    9.0676    0.0000 </r>
       <r>    9.0856    0.0000 </r>
       <r>    9.1065    0.0000 </r>
       <r>    9.1477    0.0000 </r>
       <r>    9.1701    0.0000 </r>
       <r>    9.1749    0.0000 </r>
       <r>    9.4712    0.0000 </r>
       <r>    9.4806    0.0000 </r>
       <r>    9.6623    0.0000 </r>
       <r>    9.7470    0.0000 </r>
      </set>
      <set comment="kpoint 4">
       <r>  -40.5414    1.0000 </r>
       <r>  -40.0369    1.0000 </r>
       <r>  -39.7949    1.0000 </r>
       <r>  -39.7786    1.0000 </r>
       <r>  -39.7042    1.0000 </r>
       <r>  -39.6088    1.0000 </r>
       <r>  -39.3498    1.0000 </r>
       <r>  -39.3408    1.0000 </r>
       <r>  -19.0146    1.0000 </r>
       <r>  -18.9470    1.0000 </r>
       <r>  -18.9406    1.0000 </r>
       <r>  -18.9342    1.0000 </r>
       <r>  -18.9325    1.0000 </r>
       <r>  -18.8765    1.0000 </r>
       <r>  -18.8699    1.0000 </r>
       <r>  -18.8594    1.0000 </r>
       <r>  -18.8508    1.0000 </r>
       <r>  -18.8422    1.0000 </r>
       <r>  -18.8234    1.0000 </r>
       <r>  -18.7711    1.0000 </r>
       <r>  -18.7646    1.0000 </r>
       <r>  -18.7583    1.0000 </r>
       <r>  -18.7427    1.0000 </r>
       <r>  -18.7241    1.0000 </r>
       <r>  -18.7127    1.0000 </r>
       <r>  -18.7105    1.0000 </r>
       <r>  -18.7059    1.0000 </r>
       <r>  -18.7013    1.0000 </r>
       <r>  -18.6863    1.0000 </r>
       <r>  -18.6777    1.0000 </r>
       <r>  -18.6759    1.0000 </r>
       <r>  -18.6715    1.0000 </r>
       <r>  -18.6664    1.0000 </r>
       <r>  -18.6638    1.0000 </r>
       <r>  -18.6619    1.0000 </r>
       <r>  -18.6604    1.0000 </r>
       <r>  -18.6584    1.0000 </r>
       <r>  -18.6575    1.0000 </r>
       <r>  -18.6567    1.0000 </r>
       <r>  -18.6511    1.0000 </r>
       <r>  -18.6441    1.0000 </r>
       <r>  -18.6404    1.0000 </r>
       <r>  -18.6344    1.0000 </r>
       <r>  -18.6262    1.0000 </r>
       <r>  -18.6204    1.0000 </r>
       <r>  -18.6167    1.0000 </r>
       <r>  -18.6050    1.0000 </r>
       <r>  -18.5839    1.0000 </r>
       <r>  -18.5737    1.0000 </r>
       <r>  -18.5703    1.0000 </r>
       <r>  -18.5670    1.0000 </r>
       <r>  -18.5641    1.0000 </r>
       <r>  -18.5600    1.0000 </r>
       <r>  -18.5557    1.0000 </r>
       <r>  -18.5487    1.0000 </r>
       <r>  -18.5445    1.0000 </r>
       <r>  -18.5334    1.0000 </r>
       <r>  -18.5190    1.0000 </r>
       <r>  -18.5168    1.0000 </r>
       <r>  -18.5071    1.0000 </r>
       <r>  -18.5036    1.0000 </r>
       <r>  -18.5032    1.0000 </r>
       <r>  -18.5027    1.0000 </r>
       <r>  -18.4955    1.0000 </r>
       <r>  -18.4915    1.0000 </r>
       <r>  -18.4867    1.0000 </r>
       <r>  -18.4859    1.0000 </r>
       <r>  -18.4732    1.0000 </r>
       <r>  -18.4512    1.0000 </r>
       <r>  -18.4171    1.0000 </r>
       <r>  -18.4148    1.0000 </r>
       <r>  -18.4129    1.0000 </r>
       <r>  -18.4042    1.0000 </r>
       <r>  -18.4008    1.0000 </r>
       <r>  -18.3989    1.0000 </r>
       <r>  -18.3973    1.0000 </r>
       <r>  -18.3862    1.0000 </r>
       <r>  -18.3397    1.0000 </r>
       <r>  -18.3274    1.0000 </r>
[...]
       <r>    8.8231    0.0000 </r>
       <r>    8.8587    0.0000 </r>
       <r>    8.8933    0.0000 </r>
       <r>    8.9093    0.0000 </r>
       <r>    8.9261    0.0000 </r>
       <r>    8.9444    0.0000 </r>
       <r>    8.9509    0.0000 </r>
      </set>
     </set>
    </set>
   </array>
  </eigenvalues>
  <separator name="orbital magnetization" >
   <v name="MAGDIPOLOUT">      0.00000000      0.00000000      0.00000000</v>
  </separator>
  <dos>
   <i name="efermi">      4.37867945 </i>
   <total>
    <array>
     <dimension dim="1">gridpoints</dimension>
     <dimension dim="2">spin</dimension>
     <field>energy</field>
     <field>total</field>
     <field>integrated</field>
     <set>
      <set comment="spin 1">
       <r>   -43.0558     0.0000     0.0000 </r>
       <r>   -42.8714     0.0000     0.0000 </r>
       <r>   -42.6870     0.0000     0.0000 </r>
       <r>   -42.5026     0.0000     0.0000 </r>
       <r>   -42.3183     0.0000     0.0000 </r>
       <r>   -42.1339     0.0000     0.0000 </r>
       <r>   -41.9495     0.0000     0.0000 </r>
       <r>   -41.7651     0.0000     0.0000 </r>
       <r>   -41.5807     0.0000     0.0000 </r>
       <r>   -41.3963     0.0000     0.0000 </r>
       <r>   -41.2119     0.0000     0.0000 </r>
       <r>   -41.0275     0.0000     0.0000 </r>
       <r>   -40.8431     0.0000     0.0000 </r>
       <r>   -40.6587     0.0000     0.0000 </r>
       <r>   -40.4743     0.0000     2.0000 </r>
       <r>   -40.2900     0.0000     2.0000 </r>
       <r>   -40.1056     0.0000     2.0000 </r>
       <r>   -39.9212     0.0000     4.0000 </r>
       <r>   -39.7368     0.0000     8.0000 </r>
       <r>   -39.5524     0.0000    12.0000 </r>
       <r>   -39.3680     0.0000    12.0000 </r>
       <r>   -39.1836     0.0000    16.0000 </r>
       <r>   -38.9992     0.0000    16.0000 </r>
       <r>   -38.8148     0.0000    16.0000 </r>
       <r>   -38.6304     0.0000    16.0000 </r>
       <r>   -38.4460     0.0000    16.0000 </r>
       <r>   -38.2617     0.0000    16.0000 </r>
       <r>   -38.0773     0.0000    16.0000 </r>
       <r>   -37.8929     0.0000    16.0000 </r>
       <r>   -37.7085     0.0000    16.0000 </r>
       <r>   -37.5241     0.0000    16.0000 </r>
       <r>   -37.3397     0.0000    16.0000 </r>
       <r>   -37.1553     0.0000    16.0000 </r>
       <r>   -36.9709     0.0000    16.0000 </r>
       <r>   -36.7865     0.0000    16.0000 </r>
       <r>   -36.6021     0.0000    16.0000 </r>
       <r>   -36.4177     0.0000    16.0000 </r>
       <r>   -36.2334     0.0000    16.0000 </r>
       <r>   -36.0490     0.0000    16.0000 </r>
       <r>   -35.8646     0.0000    16.0000 </r>
       <r>   -35.6802     0.0000    16.0000 </r>
       <r>   -35.4958     0.0000    16.0000 </r>
       <r>   -35.3114     0.0000    16.0000 </r>
       <r>   -35.1270     0.0000    16.0000 </r>
       <r>   -34.9426     0.0000    16.0000 </r>
       <r>   -34.7582     0.0000    16.0000 </r>
       <r>   -34.5738     0.0000    16.0000 </r>
       <r>   -34.3895     0.0000    16.0000 </r>
       <r>   -34.2051     0.0000    16.0000 </r>
       <r>   -34.0207     0.0000    16.0000 </r>
       <r>   -33.8363     0.0000    16.0000 </r>
       <r>   -33.6519     0.0000    16.0000 </r>
       <r>   -33.4675     0.0000    16.0000 </r>
       <r>   -33.2831     0.0000    16.0000 </r>
       <r>   -33.0987     0.0000    16.0000 </r>
       <r>   -32.9143     0.0000    16.0000 </r>
       <r>   -32.7299     0.0000    16.0000 </r>
       <r>   -32.5455     0.0000    16.0000 </r>
       <r>   -32.3612     0.0000    16.0000 </r>
       <r>   -32.1768     0.0000    16.0000 </r>
       <r>   -31.9924     0.0000    16.0000 </r>
       <r>   -31.8080     0.0000    16.0000 </r>
       <r>   -31.6236     0.0000    16.0000 </r>
       <r>   -31.4392     0.0000    16.0000 </r>
       <r>   -31.2548     0.0000    16.0000 </r>
       <r>   -31.0704     0.0000    16.0000 </r>
       <r>   -30.8860     0.0000    16.0000 </r>
       <r>   -30.7016     0.0000    16.0000 </r>
       <r>   -30.5172     0.0000    16.0000 </r>
       <r>   -30.3329     0.0000    16.0000 </r>
       <r>   -30.1485     0.0000    16.0000 </r>
       <r>   -29.9641     0.0000    16.0000 </r>
       <r>   -29.7797     0.0000    16.0000 </r>
       <r>   -29.5953     0.0000    16.0000 </r>
       <r>   -29.4109     0.0000    16.0000 </r>
       <r>   -29.2265     0.0000    16.0000 </r>
       <r>   -29.0421     0.0000    16.0000 </r>
       <r>   -28.8577     0.0000    16.0000 </r>
       <r>   -28.6733     0.0000    16.0000 </r>
       <r>   -28.4890     0.0000    16.0000 </r>
       <r>   -28.3046     0.0000    16.0000 </r>
       <r>   -28.1202     0.0000    16.0000 </r>
       <r>   -27.9358     0.0000    16.0000 </r>
       <r>   -27.7514     0.0000    16.0000 </r>
       <r>   -27.5670     0.0000    16.0000 </r>
       <r>   -27.3826     0.0000    16.0000 </r>
       <r>   -27.1982     0.0000    16.0000 </r>
       <r>   -27.0138     0.0000    16.0000 </r>
       <r>   -26.8294     0.0000    16.0000 </r>
       <r>   -26.6450     0.0000    16.0000 </r>
       <r>   -26.4607     0.0000    16.0000 </r>
       <r>   -26.2763     0.0000    16.0000 </r>
       <r>   -26.0919     0.0000    16.0000 </r>
       <r>   -25.9075     0.0000    16.0000 </r>
       <r>   -25.7231     0.0000    16.0000 </r>
       <r>   -25.5387     0.0000    16.0000 </r>
       <r>   -25.3543     0.0000    16.0000 </r>
       <r>   -25.1699     0.0000    16.0000 </r>
       <r>   -24.9855     0.0000    16.0000 </r>
       <r>   -24.8011     0.0000    16.0000 </r>
       <r>   -24.6167     0.0000    16.0000 </r>
       <r>   -24.4324     0.0000    16.0000 </r>
       <r>   -24.2480     0.0000    16.0000 </r>
       <r>   -24.0636     0.0000    16.0000 </r>
       <r>   -23.8792     0.0000    16.0000 </r>
       <r>   -23.6948     0.0000    16.0000 </r>
       <r>   -23.5104     0.0000    16.0000 </r>
       <r>   -23.3260     0.0000    16.0000 </r>
       <r>   -23.1416     0.0000    16.0000 </r>
       <r>   -22.9572     0.0000    16.0000 </r>
       <r>   -22.7728     0.0000    16.0000 </r>
       <r>   -22.5885     0.0000    16.0000 </r>
       <r>   -22.4041     0.0000    16.0000 </r>
       <r>   -22.2197     0.0000    16.0000 </r>
       <r>   -22.0353     0.0000    16.0000 </r>
       <r>   -21.8509     0.0000    16.0000 </r>
       <r>   -21.6665     0.0000    16.0000 </r>
       <r>   -21.4821     0.0000    16.0000 </r>
       <r>   -21.2977     0.0000    16.0000 </r>
       <r>   -21.1133     0.0000    16.0000 </r>
       <r>   -20.9289     0.0000    16.0000 </r>
       <r>   -20.7445     0.0000    16.0000 </r>
       <r>   -20.5602     0.0000    16.0000 </r>
       <r>   -20.3758     0.0000    16.0000 </r>
       <r>   -20.1914     0.0000    16.0000 </r>
       <r>   -20.0070     0.0000    16.0000 </r>
       <r>   -19.8226     0.0000    16.0000 </r>
       <r>   -19.6382     0.0000    16.0000 </r>
       <r>   -19.4538     0.0000    16.0000 </r>
       <r>   -19.2694     0.0000    16.0000 </r>
       <r>   -19.0850     0.0000    16.0000 </r>
       <r>   -18.9006     0.0000    26.0000 </r>
       <r>   -18.7162     0.0000    48.0000 </r>
       <r>   -18.5319     0.0000   114.0000 </r>
       <r>   -18.3475     0.0000   154.0000 </r>
       <r>   -18.1631     0.0000   172.0000 </r>
       <r>   -17.9787     0.0000   176.0000 </r>
       <r>   -17.7943     0.0000   176.0000 </r>
       <r>   -17.6099     0.0000   176.0000 </r>
       <r>   -17.4255     0.0000   176.0000 </r>
       <r>   -17.2411     0.0000   176.0000 </r>
       <r>   -17.0567     0.0000   176.0000 </r>
       <r>   -16.8723     0.0000   176.0000 </r>
       <r>   -16.6880     0.0000   176.0000 </r>
       <r>   -16.5036     0.0000   176.0000 </r>
       <r>   -16.3192     0.0000   176.0000 </r>
       <r>   -16.1348     0.0000   176.0000 </r>
       <r>   -15.9504     0.0000   176.0000 </r>
       <r>   -15.7660     0.0000   176.0000 </r>
       <r>   -15.5816     0.0000   176.0000 </r>
       <r>   -15.3972     0.0000   176.0000 </r>
       <r>   -15.2128     0.0000   176.0000 </r>
       <r>   -15.0284     0.0000   176.0000 </r>
       <r>   -14.8440     0.0000   176.0000 </r>
       <r>   -14.6597     0.0000   176.0000 </r>
       <r>   -14.4753     0.0000   176.0000 </r>
       <r>   -14.2909     0.0000   176.0000 </r>
       <r>   -14.1065     0.0000   176.0000 </r>
       <r>   -13.9221     0.0000   176.0000 </r>
       <r>   -13.7377     0.0000   176.0000 </r>
       <r>   -13.5533     0.0000   178.0000 </r>
       <r>   -13.3689     0.0000   182.0000 </r>
       <r>   -13.1845     0.0000   182.0000 </r>
       <r>   -13.0001     0.0000   182.0000 </r>
       <r>   -12.8157     0.0000   186.0000 </r>
       <r>   -12.6314     0.0000   198.0000 </r>
       <r>   -12.4470     0.0000   202.0000 </r>
       <r>   -12.2626     0.0000   202.0000 </r>
       <r>   -12.0782     0.0000   202.0000 </r>
       <r>   -11.8938     0.0000   206.0000 </r>
       <r>   -11.7094     0.0000   208.0000 </r>
       <r>   -11.5250     0.0000   208.0000 </r>
       <r>   -11.3406     0.0000   208.0000 </r>
       <r>   -11.1562     0.0000   208.0000 </r>
       <r>   -10.9718     0.0000   208.0000 </r>
       <r>   -10.7875     0.0000   208.0000 </r>
       <r>   -10.6031     0.0000   208.0000 </r>
       <r>   -10.4187     0.0000   208.0000 </r>
       <r>   -10.2343     0.0000   208.0000 </r>
       <r>   -10.0499     0.0000   208.0000 </r>
       <r>    -9.8655     0.0000   208.0000 </r>
       <r>    -9.6811     0.0000   208.0000 </r>
       <r>    -9.4967     0.0000   208.0000 </r>
       <r>    -9.3123     3.6320   208.0627 </r>
       <r>    -9.1279     5.8646   209.8441 </r>
       <r>    -8.9435     4.3825   211.9395 </r>
       <r>    -8.7592    16.0501   214.3036 </r>
       <r>    -8.5748    14.3512   216.7347 </r>
       <r>    -8.3904    13.0814   221.1256 </r>
       <r>    -8.2060    34.9964   224.7595 </r>
       <r>    -8.0216    29.8714   228.7635 </r>
       <r>    -7.8372    18.9647   232.6435 </r>
       <r>    -7.6528    15.0823   235.9617 </r>
       <r>    -7.4684    14.0539   239.2569 </r>
       <r>    -7.2840     0.0000   240.0000 </r>
       <r>    -7.0996     0.0000   240.0000 </r>
       <r>    -6.9152     0.0000   240.0000 </r>
       <r>    -6.7309     0.0000   240.0000 </r>
       <r>    -6.5465     0.0000   240.0000 </r>
       <r>    -6.3621     2.0552   240.0258 </r>
       <r>    -6.1777    22.7256   242.3582 </r>
       <r>    -5.9933    13.4961   246.2926 </r>
       <r>    -5.8089    18.6006   249.8667 </r>
       <r>    -5.6245    22.5111   254.4139 </r>
       <r>    -5.4401    18.4800   258.0386 </r>
       <r>    -5.2557    16.6643   261.8309 </r>
       <r>    -5.0713     3.7305   263.8682 </r>
       <r>    -4.8870     6.8837   264.6417 </r>
       <r>    -4.7026     8.9333   266.1248 </r>
       <r>    -4.5182     7.7257   267.8838 </r>
       <r>    -4.3338     6.1919   269.2879 </r>
       <r>    -4.1494     6.5397   270.5156 </r>
       <r>    -3.9650     3.6875   271.4764 </r>
       <r>    -3.7806     1.2256   271.8954 </r>
       <r>    -3.5962     0.0274   271.9998 </r>
       <r>    -3.4118     0.0000   272.0000 </r>
       <r>    -3.2274     0.0000   272.0000 </r>
       <r>    -3.0430     0.0000   272.0000 </r>
       <r>    -2.8587     0.0000   272.0000 </r>
       <r>    -2.6743     0.0000   272.0000 </r>
       <r>    -2.4899     0.0000   272.0000 </r>
       <r>    -2.3055     0.0000   272.0000 </r>
       <r>    -2.1211     0.0000   272.0000 </r>
       <r>    -1.9367     0.0000   272.0000 </r>
       <r>    -1.7523     0.0000   272.0000 </r>
       <r>    -1.5679     0.0000   272.0000 </r>
       <r>    -1.3835     2.2168   272.0959 </r>
       <r>    -1.1991     8.6322   273.1121 </r>
       <r>    -1.0147    11.9681   275.1182 </r>
       <r>    -0.8304    11.7069   277.3622 </r>
       <r>    -0.6460     6.1312   278.9806 </r>
       <r>    -0.4616    16.3242   280.9263 </r>
       <r>    -0.2772    21.9507   284.8136 </r>
       <r>    -0.0928    38.0289   290.4485 </r>
       <r>     0.0916    27.8135   296.8758 </r>
       <r>     0.2760    41.8696   302.5313 </r>
       <r>     0.4604    40.4321   309.8373 </r>
       <r>     0.6448    34.9611   316.3679 </r>
       <r>     0.8292    39.1207   324.3412 </r>
       <r>     1.0136    46.7385   332.0494 </r>
       <r>     1.1979    39.7304   339.1131 </r>
       <r>     1.3823    41.4776   348.4924 </r>
       <r>     1.5667    53.6930   357.3773 </r>
       <r>     1.7511    42.1066   365.8422 </r>
       <r>     1.9355    43.4905   373.1143 </r>
       <r>     2.1199    44.6891   381.2099 </r>
       <r>     2.3043    47.6269   389.5817 </r>
       <r>     2.4887    61.3349   399.2826 </r>
       <r>     2.6731    57.8365   410.4878 </r>
       <r>     2.8575    60.4900   421.1699 </r>
       <r>     3.0418    55.1373   433.0100 </r>
       <r>     3.2262    40.4053   442.5410 </r>
       <r>     3.4106    43.1701   449.8603 </r>
       <r>     3.5950    22.0392   456.0709 </r>
       <r>     3.7794    18.4595   459.4442 </r>
       <r>     3.9638    11.3314   462.4227 </r>
       <r>     4.1482     3.7379   463.8125 </r>
       <r>     4.3326     0.0000   464.0000 </r>
       <r>     4.5170     0.0000   464.0000 </r>
       <r>     4.7014     0.0000   464.0000 </r>
       <r>     4.8858     0.0000   464.0000 </r>
       <r>     5.0701     0.2247   464.0041 </r>
       <r>     5.2545     2.9374   464.2550 </r>
       <r>     5.4389     7.2165   465.1910 </r>
       <r>     5.6233     8.6009   466.7942 </r>
       <r>     5.8077    11.3372   469.5669 </r>
       <r>     5.9921    13.6773   472.9309 </r>
       <r>     6.1765    11.6042   475.2307 </r>
       <r>     6.3609    12.8310   477.4397 </r>
       <r>     6.5453    14.9435   480.0008 </r>
       <r>     6.7297    16.9168   482.9431 </r>
       <r>     6.9141    19.3839   486.2727 </r>
       <r>     7.0984    24.7633   490.2610 </r>
       <r>     7.2828    33.0641   495.5704 </r>
       <r>     7.4672    35.4542   502.3553 </r>
       <r>     7.6516    28.2210   507.5857 </r>
       <r>     7.8360    53.4114   514.8166 </r>
       <r>     8.0204    31.9120   523.7340 </r>
       <r>     8.2048    20.5267   528.4221 </r>
       <r>     8.3892    19.0641   531.9045 </r>
       <r>     8.5736    23.7568   535.7807 </r>
       <r>     8.7580    29.8651   540.6446 </r>
       <r>     8.9423    37.6361   548.5810 </r>
       <r>     9.1267    18.6079   553.8592 </r>
       <r>     9.3111    13.9910   556.7615 </r>
       <r>     9.4955     8.3515   558.9081 </r>
       <r>     9.6799     2.7113   559.9125 </r>
       <r>     9.8643     0.0000   560.0000 </r>
       <r>    10.0487     0.0000   560.0000 </r>
       <r>    10.2331     0.0000   560.0000 </r>
       <r>    10.4175     0.0000   560.0000 </r>
       <r>    10.6019     0.0000   560.0000 </r>
       <r>    10.7863     0.0000   560.0000 </r>
       <r>    10.9706     0.0000   560.0000 </r>
       <r>    11.1550     0.0000   560.0000 </r>
       <r>    11.3394     0.0000   560.0000 </r>
       <r>    11.5238     0.0000   560.0000 </r>
       <r>    11.7082     0.0000   560.0000 </r>
       <r>    11.8926     0.0000   560.0000 </r>
       <r>    12.0770     0.0000   560.0000 </r>
       <r>    12.2614     0.0000   560.0000 </r>
      </set>
     </set>
    </array>
   </total>
  </dos>
 </calculation>
 <structure name="finalpos" >
  <crystal>
   <varray name="basis" >
    <v>      11.17850000       0.00000000       0.00000000 </v>
    <v>       0.00000000       9.57460000       0.00000000 </v>
    <v>       0.00000000       0.00000000      11.18240000 </v>
   </varray>
   <i name="volume">   1196.84853820 </i>
   <varray name="rec_basis" >
    <v>       0.08945744       0.00000000       0.00000000 </v>
    <v>       0.00000000       0.10444301       0.00000000 </v>
    <v>       0.00000000       0.00000000       0.08942624 </v>
   </varray>
  </crystal>
  <varray name="positions" >
   <v>       0.37539000       0.00017000       0.43687000 </v>
   <v>       0.12461000       0.99984000       0.18687000 </v>
   <v>       0.37461000       0.00017000       0.18687000 </v>
   <v>       0.62539000       0.99984000       0.43687000 </v>
   <v>       0.87539000       0.00017000       0.43687000 </v>
   <v>       0.62461000       0.99984000       0.18687000 </v>
   <v>       0.87461000       0.00017000       0.18687000 </v>
   <v>       0.87461000       0.00017000       0.68687000 </v>
   <v>       0.37539000       0.00017000       0.93687000 </v>
   <v>       0.12461000       0.99984000       0.68687000 </v>
   <v>       0.87539000       0.00017000       0.93687000 </v>
   <v>       0.62461000       0.99984000       0.68687000 </v>
   <v>       0.00013000       0.29519000       0.06281000 </v>
   <v>       0.25013000       0.70481000       0.06281000 </v>
   <v>       0.24987000       0.29519000       0.31282000 </v>
   <v>       0.49987000       0.70481000       0.31282000 </v>
   <v>       0.50013000       0.29519000       0.06281000 </v>
   <v>       0.75013000       0.70481000       0.06281000 </v>
   <v>       0.74987000       0.29519000       0.31282000 </v>
   <v>       0.99987000       0.70481000       0.31282000 </v>
   <v>       0.00013000       0.29519000       0.56281000 </v>
   <v>       0.25013000       0.70481000       0.56281000 </v>
   <v>       0.24987000       0.29519000       0.81282000 </v>
   <v>       0.49987000       0.70481000       0.81282000 </v>
   <v>       0.50013000       0.29519000       0.56281000 </v>
   <v>       0.75013000       0.70481000       0.56281000 </v>
   <v>       0.74987000       0.29519000       0.81282000 </v>
   <v>       0.99987000       0.70481000       0.81282000 </v>
   <v>       0.25005000       0.32677000       0.06286000 </v>
   <v>       0.00005000       0.67323000       0.06286000 </v>
   <v>       0.49995000       0.32677000       0.31286000 </v>
   <v>       0.24995000       0.67323000       0.31286000 </v>
   <v>       0.75005000       0.32677000       0.06286000 </v>
   <v>       0.50005000       0.67323000       0.06286000 </v>
   <v>       0.99995000       0.32677000       0.31286000 </v>
   <v>       0.74995000       0.67323000       0.31286000 </v>
   <v>       0.25005000       0.32677000       0.56286000 </v>
   <v>       0.00005000       0.67323000       0.56286000 </v>
   <v>       0.49995000       0.32677000       0.81286000 </v>
   <v>       0.24995000       0.67323000       0.81286000 </v>
   <v>       0.75005000       0.32677000       0.56286000 </v>
   <v>       0.50005000       0.67323000       0.56286000 </v>
   <v>       0.99995000       0.32677000       0.81286000 </v>
   <v>       0.74995000       0.67323000       0.81286000 </v>
   <v>       0.49987000       0.07798000       0.06246000 </v>
   <v>       0.24987000       0.92202000       0.06246000 </v>
   <v>       0.25013000       0.07798000       0.31246000 </v>
   <v>       0.00013000       0.92202000       0.31246000 </v>
   <v>       0.99987000       0.07798000       0.06246000 </v>
   <v>       0.74987000       0.92202000       0.06246000 </v>
   <v>       0.75013000       0.07798000       0.31246000 </v>
   <v>       0.50013000       0.92202000       0.31246000 </v>
   <v>       0.49987000       0.07798000       0.56246000 </v>
   <v>       0.24987000       0.92202000       0.56246000 </v>
   <v>       0.25013000       0.07798000       0.81246000 </v>
   <v>       0.00013000       0.92202000       0.81246000 </v>
   <v>       0.99987000       0.07798000       0.56246000 </v>
   <v>       0.74987000       0.92202000       0.56246000 </v>
   <v>       0.75013000       0.07798000       0.81246000 </v>
   <v>       0.50013000       0.92202000       0.81246000 </v>
  </varray>
 </structure>
</modeling>
