<?xml version="1.0" encoding="ISO-8859-1"?>
<modeling>
 <generator>
  <i name="program" type="string">vasp </i>
  <i name="version" type="string">5.4.4.18Apr17-6-g9f103f2a35  </i>
  <i name="subversion" type="string">(build Jul 31 2017 11:33:29) complex            parallel </i>
  <i name="platform" type="string">LinuxIFC </i>
  <i name="date" type="string">2021 09 24 </i>
  <i name="time" type="string">10:56:25 </i>
 </generator>
 <incar>
  <i type="string" name="SYSTEM"> La2O2S</i>
  <i type="string" name="PREC">normal</i>
  <i type="int" name="NELMIN">     4</i>
  <i type="int" name="IBRION">     2</i>
  <i type="int" name="NFREE">    10</i>
  <i name="EDIFF">      0.00000100</i>
  <i name="EDIFFG">     -0.01000000</i>
  <i type="int" name="NSW">   200</i>
  <i type="int" name="ISIF">     3</i>
  <i name="ENCUT">    600.00000000</i>
  <i name="ENAUG">    900.00000000</i>
  <i type="int" name="ISMEAR">    -5</i>
  <i type="logical" name="LWAVE"> F  </i>
  <i type="logical" name="LCHARG"> F  </i>
  <v type="int" name="KPOINT_BSE">    -1     0     0     0</v>
 </incar>
 <structure name="primitive_cell" >
  <crystal>
   <varray name="basis" >
    <v>      11.17850000       0.00000000       0.00000000 </v>
    <v>       0.00000000       9.57460000       0.00000000 </v>
    <v>       0.00000000       0.00000000      11.18240000 </v>
   </varray>
   <i name="volume">   1196.84853820 </i>
   <varray name="rec_basis" >
    <v>       0.08945744       0.00000000       0.00000000 </v>
    <v>       0.00000000       0.10444301       0.00000000 </v>
    <v>       0.00000000       0.00000000       0.08942624 </v>
   </varray>
  </crystal>
  <varray name="positions" >
   <v>       0.37539000       0.00017000       0.43687000 </v>
   <v>      -0.49987000      -0.07798000       0.31246000 </v>
   <v>       0.25013000       0.07798000       0.31246000 </v>
   <v>       0.49987000       0.07798000      -0.43754000 </v>
   <v>       0.24987000      -0.07798000      -0.43754000 </v>
   <v>      -0.37461000      -0.00016000       0.43687000 </v>
   <v>       0.37461000       0.00017000      -0.31313000 </v>
   <v>       0.37461000       0.00017000       0.18687000 </v>
   <v>       0.49987000      -0.29519000       0.31282000 </v>
   <v>       0.24987000       0.29519000       0.31282000 </v>
   <v>      -0.49987000       0.29519000      -0.43719000 </v>
   <v>       0.25013000      -0.29519000      -0.43719000 </v>
   <v>       0.49995000       0.32677000       0.31286000 </v>
   <v>       0.24995000      -0.32677000       0.31286000 </v>
   <v>      -0.49995000      -0.32677000      -0.43714000 </v>
   <v>       0.25005000       0.32677000      -0.43714000 </v>
   <v>      -0.37539000      -0.00016000      -0.31313000 </v>
   <v>       0.12461000      -0.00016000       0.18687000 </v>
   <v>       0.12461000      -0.00016000      -0.31313000 </v>
   <v>       0.49987000       0.07798000       0.06246000 </v>
   <v>      -0.24987000       0.07798000       0.31246000 </v>
   <v>      -0.25013000      -0.07798000      -0.43754000 </v>
   <v>       0.24987000      -0.07798000       0.06246000 </v>
   <v>       0.00013000      -0.07798000       0.31246000 </v>
   <v>      -0.49987000      -0.07798000      -0.18754000 </v>
   <v>      -0.00013000       0.07798000      -0.43754000 </v>
   <v>       0.25013000       0.07798000      -0.18754000 </v>
   <v>      -0.49987000       0.29519000       0.06281000 </v>
   <v>      -0.25013000       0.29519000       0.31282000 </v>
   <v>       0.25013000      -0.29519000       0.06281000 </v>
   <v>      -0.24987000      -0.29519000      -0.43719000 </v>
   <v>      -0.00013000      -0.29519000       0.31282000 </v>
   <v>       0.00013000       0.29519000      -0.43719000 </v>
   <v>       0.49987000      -0.29519000      -0.18718000 </v>
   <v>       0.24987000       0.29519000      -0.18718000 </v>
   <v>      -0.49995000      -0.32677000       0.06286000 </v>
   <v>       0.25005000       0.32677000       0.06286000 </v>
   <v>      -0.25005000      -0.32677000       0.31286000 </v>
   <v>      -0.24995000       0.32677000      -0.43714000 </v>
   <v>      -0.00005000       0.32677000       0.31286000 </v>
   <v>       0.00005000      -0.32677000      -0.43714000 </v>
   <v>       0.49995000       0.32677000      -0.18714000 </v>
   <v>       0.24995000      -0.32677000      -0.18714000 </v>
   <v>      -0.12461000       0.00017000       0.43687000 </v>
   <v>       0.37539000       0.00017000      -0.06313000 </v>
   <v>      -0.25013000      -0.07798000       0.06246000 </v>
   <v>      -0.00013000       0.07798000       0.06246000 </v>
   <v>      -0.24987000       0.07798000      -0.18754000 </v>
   <v>       0.00013000      -0.07798000      -0.18754000 </v>
   <v>      -0.12539000       0.00017000      -0.31313000 </v>
   <v>      -0.12539000       0.00017000       0.18687000 </v>
   <v>       0.12539000      -0.00016000      -0.06313000 </v>
   <v>      -0.37461000      -0.00016000      -0.06313000 </v>
   <v>      -0.24987000      -0.29519000       0.06281000 </v>
   <v>       0.00013000       0.29519000       0.06281000 </v>
   <v>      -0.25013000       0.29519000      -0.18718000 </v>
   <v>      -0.00013000      -0.29519000      -0.18718000 </v>
   <v>      -0.24995000       0.32677000       0.06286000 </v>
   <v>       0.00005000      -0.32677000       0.06286000 </v>
   <v>      -0.25005000      -0.32677000      -0.18714000 </v>
   <v>      -0.00005000       0.32677000      -0.18714000 </v>
   <v>      -0.12461000       0.00017000      -0.06313000 </v>
  </varray>
 </structure>
 <varray name="primitive_index" >
  <v type="int" >        1 </v>
  <v type="int" >       54 </v>
  <v type="int" >       49 </v>
  <v type="int" >       55 </v>
  <v type="int" >       56 </v>
  <v type="int" >        3 </v>
  <v type="int" >        8 </v>
  <v type="int" >       13 </v>
  <v type="int" >       18 </v>
  <v type="int" >       17 </v>
  <v type="int" >       27 </v>
  <v type="int" >       24 </v>
  <v type="int" >       33 </v>
  <v type="int" >       34 </v>
  <v type="int" >       44 </v>
  <v type="int" >       39 </v>
  <v type="int" >       11 </v>
  <v type="int" >        2 </v>
  <v type="int" >        7 </v>
  <v type="int" >       47 </v>
  <v type="int" >       53 </v>
  <v type="int" >       60 </v>
  <v type="int" >       48 </v>
  <v type="int" >       50 </v>
  <v type="int" >       62 </v>
  <v type="int" >       59 </v>
  <v type="int" >       57 </v>
  <v type="int" >       19 </v>
  <v type="int" >       21 </v>
  <v type="int" >       16 </v>
  <v type="int" >       28 </v>
  <v type="int" >       22 </v>
  <v type="int" >       23 </v>
  <v type="int" >       26 </v>
  <v type="int" >       25 </v>
  <v type="int" >       36 </v>
  <v type="int" >       31 </v>
  <v type="int" >       38 </v>
  <v type="int" >       43 </v>
  <v type="int" >       37 </v>
  <v type="int" >       40 </v>
  <v type="int" >       41 </v>
  <v type="int" >       42 </v>
  <v type="int" >        4 </v>
  <v type="int" >        6 </v>
  <v type="int" >       52 </v>
  <v type="int" >       51 </v>
  <v type="int" >       61 </v>
  <v type="int" >       58 </v>
  <v type="int" >       12 </v>
  <v type="int" >       14 </v>
  <v type="int" >        5 </v>
  <v type="int" >        9 </v>
  <v type="int" >       20 </v>
  <v type="int" >       15 </v>
  <v type="int" >       29 </v>
  <v type="int" >       30 </v>
  <v type="int" >       35 </v>
  <v type="int" >       32 </v>
  <v type="int" >       46 </v>
  <v type="int" >       45 </v>
  <v type="int" >       10 </v>
 </varray>
 <kpoints>
  <generation param="Gamma">
   <v type="int" name="divisions">       2        2        2 </v>
   <v name="usershift">      0.00000000       0.00000000       0.00000000 </v>
   <v name="genvec1">      0.50000000       0.00000000       0.00000000 </v>
   <v name="genvec2">      0.00000000       0.50000000       0.00000000 </v>
   <v name="genvec3">      0.00000000       0.00000000       0.50000000 </v>
   <v name="shift">      0.00000000       0.00000000       0.00000000 </v>
  </generation>
  <varray name="kpointlist" >
   <v>       0.00000000       0.00000000       0.00000000 </v>
   <v>       0.50000000       0.00000000       0.00000000 </v>
   <v>       0.00000000       0.50000000       0.00000000 </v>
   <v>       0.50000000       0.50000000       0.00000000 </v>
   <v>       0.00000000       0.00000000       0.50000000 </v>
   <v>       0.50000000       0.00000000       0.50000000 </v>
   <v>       0.00000000       0.50000000       0.50000000 </v>
   <v>       0.50000000       0.50000000       0.50000000 </v>
  </varray>
  <varray name="weights" >
   <v>       0.12500000 </v>
   <v>       0.12500000 </v>
   <v>       0.12500000 </v>
   <v>       0.12500000 </v>
   <v>       0.12500000 </v>
   <v>       0.12500000 </v>
   <v>       0.12500000 </v>
   <v>       0.12500000 </v>
  </varray>
  <varray name="tetrahedronlist"  type="int" >
   <v type="int" >        2        1        2        4        5 </v>
   <v type="int" >        2        1        3        4        5 </v>
   <v type="int" >        2        3        4        5        7 </v>
   <v type="int" >        2        2        4        5        6 </v>
   <v type="int" >        2        4        5        6        8 </v>
   <v type="int" >        2        4        5        7        8 </v>
   <v type="int" >        2        1        2        3        6 </v>
   <v type="int" >        2        2        3        4        6 </v>
   <v type="int" >        2        3        4        6        8 </v>
   <v type="int" >        2        1        3        5        6 </v>
   <v type="int" >        2        3        5        6        7 </v>
   <v type="int" >        2        3        6        7        8 </v>
   <v type="int" >        2        2        3        4        7 </v>
   <v type="int" >        2        1        2        3        7 </v>
   <v type="int" >        2        1        2        5        7 </v>
   <v type="int" >        2        2        4        7        8 </v>
   <v type="int" >        2        2        6        7        8 </v>
   <v type="int" >        2        2        5        6        7 </v>
   <v type="int" >        2        1        3        4        8 </v>
   <v type="int" >        2        1        2        4        8 </v>
   <v type="int" >        2        1        2        6        8 </v>
   <v type="int" >        2        1        3        7        8 </v>
   <v type="int" >        2        1        5        7        8 </v>
   <v type="int" >        2        1        5        6        8 </v>
  </varray>
  <i name="volumeweight">      0.02083333 </i>
 </kpoints>
 <parameters>
  <separator name="general" >
   <i type="string" name="SYSTEM">La2O2S</i>
   <i type="logical" name="LCOMPAT"> F  </i>
  </separator>
  <separator name="electronic" >
   <i type="string" name="PREC">normal</i>
   <i name="ENMAX">    600.00000000</i>
   <i name="ENAUG">    900.00000000</i>
   <i name="EDIFF">      0.00000100</i>
   <i type="int" name="IALGO">    38</i>
   <i type="int" name="IWAVPR">    11</i>
   <i type="int" name="NBANDS">   308</i>
   <i name="NELECT">    472.00000000</i>
   <i type="int" name="TURBO">     0</i>
   <i type="int" name="IRESTART">     0</i>
   <i type="int" name="NREBOOT">     0</i>
   <i type="int" name="NMIN">     0</i>
   <i name="EREF">      0.00000000</i>
   <separator name="electronic smearing" >
    <i type="int" name="ISMEAR">    -5</i>
    <i name="SIGMA">      0.20000000</i>
    <i name="KSPACING">      0.50000000</i>
    <i type="logical" name="KGAMMA"> T  </i>
   </separator>
   <separator name="electronic projectors" >
    <i type="logical" name="LREAL"> F  </i>
    <v name="ROPT">      0.00000000      0.00000000      0.00000000      0.00000000      0.00000000</v>
    <i type="int" name="LMAXPAW">  -100</i>
    <i type="int" name="LMAXMIX">     2</i>
    <i type="logical" name="NLSPLINE"> F  </i>
   </separator>
   <separator name="electronic startup" >
    <i type="int" name="ISTART">     0</i>
    <i type="int" name="ICHARG">     2</i>
    <i type="int" name="INIWAV">     1</i>
   </separator>
   <separator name="electronic spin" >
    <i type="int" name="ISPIN">     1</i>
    <i type="logical" name="LNONCOLLINEAR"> F  </i>
    <v name="MAGMOM">      1.00000000      1.00000000      1.00000000      1.00000000      1.00000000      1.00000000      1.00000000      1.00000000      1.00000000      1.00000000      1.00000000      1.00000000      1.00000000      1.00000000      1.00000000      1.00000000      1.00000000      1.00000000      1.00000000      1.00000000
      1.00000000      1.00000000      1.00000000      1.00000000      1.00000000      1.00000000      1.00000000      1.00000000      1.00000000      1.00000000      1.00000000      1.00000000      1.00000000      1.00000000      1.00000000      1.00000000      1.00000000      1.00000000      1.00000000      1.00000000
      1.00000000      1.00000000      1.00000000      1.00000000      1.00000000      1.00000000      1.00000000      1.00000000      1.00000000      1.00000000      1.00000000      1.00000000      1.00000000      1.00000000      1.00000000      1.00000000      1.00000000      1.00000000      1.00000000      1.00000000
      1.00000000      1.00000000</v>
    <i name="NUPDOWN">     -1.00000000</i>
    <i type="logical" name="LSORBIT"> F  </i>
    <v name="SAXIS">      0.00000000      0.00000000      1.00000000</v>
    <i type="logical" name="LSPIRAL"> F  </i>
    <v name="QSPIRAL">      0.00000000      0.00000000      0.00000000</v>
    <i type="logical" name="LZEROZ"> F  </i>
   </separator>
   <separator name="electronic exchange-correlation" >
    <i type="logical" name="LASPH"> F  </i>
    <i type="logical" name="LMETAGGA"> F  </i>
   </separator>
   <separator name="electronic convergence" >
    <i type="int" name="NELM">    60</i>
    <i type="int" name="NELMDL">    -5</i>
    <i type="int" name="NELMIN">     4</i>
    <i name="ENINI">    600.00000000</i>
    <separator name="electronic convergence detail" >
     <i type="logical" name="LDIAG"> T  </i>
     <i type="logical" name="LSUBROT"> F  </i>
     <i name="WEIMIN">      0.00100000</i>
     <i name="EBREAK">      0.00000000</i>
     <i name="DEPER">      0.30000000</i>
     <i type="int" name="NRMM">     4</i>
     <i name="TIME">      0.40000000</i>
    </separator>
   </separator>
   <separator name="electronic mixer" >
    <i name="AMIX">      0.40000000</i>
    <i name="BMIX">      1.00000000</i>
    <i name="AMIN">      0.10000000</i>
    <i name="AMIX_MAG">      1.60000000</i>
    <i name="BMIX_MAG">      1.00000000</i>
    <separator name="electronic mixer details" >
     <i type="int" name="IMIX">     4</i>
     <i type="logical" name="MIXFIRST"> F  </i>
     <i type="int" name="MAXMIX">   -45</i>
     <i name="WC">    100.00000000</i>
     <i type="int" name="INIMIX">     1</i>
     <i type="int" name="MIXPRE">     1</i>
     <i type="int" name="MREMOVE">     5</i>
    </separator>
   </separator>
   <separator name="electronic dipolcorrection" >
    <i type="logical" name="LDIPOL"> F  </i>
    <i type="logical" name="LMONO"> F  </i>
    <i type="int" name="IDIPOL">     0</i>
    <i name="EPSILON">      1.00000000</i>
    <v name="DIPOL">   -100.00000000   -100.00000000   -100.00000000</v>
    <i name="EFIELD">      0.00000000</i>
   </separator>
  </separator>
  <separator name="grids" >
   <i type="int" name="NGX">    70</i>
   <i type="int" name="NGY">    60</i>
   <i type="int" name="NGZ">    70</i>
   <i type="int" name="NGXF">   140</i>
   <i type="int" name="NGYF">   120</i>
   <i type="int" name="NGZF">   140</i>
   <i type="logical" name="ADDGRID"> F  </i>
  </separator>
  <separator name="ionic" >
   <i type="int" name="NSW">   200</i>
   <i type="int" name="IBRION">     2</i>
   <i type="int" name="MDALGO">     0</i>
   <i type="int" name="ISIF">     3</i>
   <i name="PSTRESS">      0.00000000</i>
   <i name="EDIFFG">     -0.01000000</i>
   <i type="int" name="NFREE">    10</i>
   <i name="POTIM">      0.50000000</i>
   <i name="SMASS">     -3.00000000</i>
   <i name="SCALEE">      1.00000000</i>
  </separator>
  <separator name="ionic md" >
   <i name="TEBEG">      0.00010000</i>
   <i name="TEEND">      0.00010000</i>
   <i type="int" name="NBLOCK">     1</i>
   <i type="int" name="KBLOCK">   200</i>
   <i type="int" name="NPACO">   256</i>
   <i name="APACO">     16.00000000</i>
  </separator>
  <separator name="symmetry" >
   <i type="int" name="ISYM">     2</i>
   <i name="SYMPREC">      0.00001000</i>
  </separator>
  <separator name="dos" >
   <i type="int" name="LORBIT">     0</i>
   <v name="RWIGS">     -1.00000000     -1.00000000     -1.00000000     -1.00000000     -1.00000000</v>
   <i type="int" name="NEDOS">   301</i>
   <i name="EMIN">     10.00000000</i>
   <i name="EMAX">    -10.00000000</i>
   <i name="EFERMI">      0.00000000</i>
  </separator>
  <separator name="writing" >
   <i type="int" name="NWRITE">     2</i>
   <i type="logical" name="LWAVE"> F  </i>
   <i type="logical" name="LDOWNSAMPLE"> F  </i>
   <i type="logical" name="LCHARG"> F  </i>
   <i type="logical" name="LPARD"> F  </i>
   <i type="logical" name="LVTOT"> F  </i>
   <i type="logical" name="LVHAR"> F  </i>
   <i type="logical" name="LELF"> F  </i>
   <i type="logical" name="LOPTICS"> F  </i>
   <v name="STM">      0.00000000      0.00000000      0.00000000      0.00000000      0.00000000      0.00000000      0.00000000</v>
  </separator>
  <separator name="performance" >
   <i type="int" name="NPAR">    28</i>
   <i type="int" name="NSIM">     4</i>
   <i type="int" name="NBLK">    -1</i>
   <i type="logical" name="LPLANE"> T  </i>
   <i type="logical" name="LSCALAPACK"> T  </i>
   <i type="logical" name="LSCAAWARE"> F  </i>
   <i type="logical" name="LSCALU"> F  </i>
   <i type="logical" name="LASYNC"> F  </i>
   <i type="logical" name="LORBITALREAL"> F  </i>
  </separator>
  <separator name="miscellaneous" >
   <i type="int" name="IDIOT">     3</i>
   <i type="int" name="ISPECIAL">     0</i>
   <i type="logical" name="LMUSIC"> F  </i>
   <v name="POMASS">      7.01000000     24.30500000    208.98000000     32.06600000     16.00000000</v>
   <v name="DARWINR">      0.00000000      0.00000000      0.00000000      0.00000000      0.00000000</v>
   <v name="DARWINV">      1.00000000      1.00000000      1.00000000      1.00000000      1.00000000</v>
   <i type="logical" name="LCORR"> T  </i>
  </separator>
  <i type="logical" name="GGA_COMPAT"> T  </i>
  <i type="logical" name="LBERRY"> F  </i>
  <i type="int" name="ICORELEVEL">     0</i>
  <i type="logical" name="LDAU"> F  </i>
  <i type="int" name="I_CONSTRAINED_M">     0</i>
  <separator name="electronic exchange-correlation" >
   <i type="string" name="GGA">--</i>
   <i type="int" name="VOSKOWN">     0</i>
   <i type="logical" name="LHFCALC"> F  </i>
   <i type="string" name="PRECFOCK"></i>
   <i type="logical" name="LSYMGRAD"> F  </i>
   <i type="logical" name="LHFONE"> F  </i>
   <i type="logical" name="LRHFCALC"> F  </i>
   <i type="logical" name="LTHOMAS"> F  </i>
   <i type="logical" name="LMODELHF"> F  </i>
   <i name="ENCUT4O">     -1.00000000</i>
   <i type="int" name="EXXOEP">     0</i>
   <i type="int" name="FOURORBIT">     0</i>
   <i name="AEXX">      0.00000000</i>
   <i name="HFALPHA">      0.00000000</i>
   <i name="MCALPHA">      0.00000000</i>
   <i name="ALDAX">      1.00000000</i>
   <i name="AGGAX">      1.00000000</i>
   <i name="ALDAC">      1.00000000</i>
   <i name="AGGAC">      1.00000000</i>
   <i type="int" name="NKREDX">     1</i>
   <i type="int" name="NKREDY">     1</i>
   <i type="int" name="NKREDZ">     1</i>
   <i type="logical" name="SHIFTRED"> F  </i>
   <i type="logical" name="ODDONLY"> F  </i>
   <i type="logical" name="EVENONLY"> F  </i>
   <i type="int" name="LMAXFOCK">     0</i>
   <i type="int" name="NMAXFOCKAE">     0</i>
   <i type="logical" name="LFOCKAEDFT"> F  </i>
   <i name="HFSCREEN">      0.00000000</i>
   <i name="HFSCREENC">      0.00000000</i>
   <i type="int" name="NBANDSGWLOW">     0</i>
  </separator>
  <separator name="vdW DFT" >
   <i type="logical" name="LUSE_VDW"> F  </i>
   <i name="Zab_VDW">     -0.84910000</i>
   <i name="PARAM1">      0.12340000</i>
   <i name="PARAM2">      1.00000000</i>
   <i name="PARAM3">      0.00000000</i>
  </separator>
  <separator name="model GW" >
   <i type="int" name="MODEL_GW">     0</i>
   <i name="MODEL_EPS0">     11.58240521</i>
   <i name="MODEL_ALPHA">      1.00000000</i>
  </separator>
  <separator name="linear response parameters" >
   <i type="logical" name="LEPSILON"> F  </i>
   <i type="logical" name="LRPA"> F  </i>
   <i type="logical" name="LNABLA"> F  </i>
   <i type="logical" name="LVEL"> F  </i>
   <i type="int" name="KINTER">     0</i>
   <i name="CSHIFT">      0.10000000</i>
   <i name="OMEGAMAX">     -1.00000000</i>
   <i name="DEG_THRESHOLD">      0.00200000</i>
   <i name="RTIME">     -0.10000000</i>
   <i name="WPLASMAI">      0.00000000</i>
   <v name="DFIELD">      0.00000000      0.00000000      0.00000000</v>
   <v name="WPLASMA">      0.00000000      0.00000000      0.00000000      0.00000000      0.00000000      0.00000000      0.00000000      0.00000000      0.00000000</v>
  </separator>
  <separator name="orbital magnetization" >
   <i type="logical" name="NUCIND"> F  </i>
   <v name="MAGPOS">      0.00000000      0.00000000      0.00000000</v>
   <i type="logical" name="LNICSALL"> T  </i>
   <i type="logical" name="ORBITALMAG"> F  </i>
   <i type="logical" name="LMAGBLOCH"> F  </i>
   <i type="logical" name="LCHIMAG"> F  </i>
   <i type="logical" name="LGAUGE"> T  </i>
   <i type="int" name="MAGATOM">     0</i>
   <v name="MAGDIPOL">      0.00000000      0.00000000      0.00000000</v>
   <v name="AVECCONST">      0.00000000      0.00000000      0.00000000</v>
  </separator>
  <separator name="response functions" >
   <i type="logical" name="LADDER"> F  </i>
   <i type="logical" name="LRPAFORCE"> F  </i>
   <i type="logical" name="LFXC"> F  </i>
   <i type="logical" name="LHARTREE"> T  </i>
   <i type="int" name="IBSE">     0</i>
   <v type="int" name="KPOINT">    -1     0     0     0</v>
   <i type="logical" name="LTCTE"> F  </i>
   <i type="logical" name="LTETE"> F  </i>
   <i type="logical" name="LTRIPLET"> F  </i>
   <i type="logical" name="LFXCEPS"> F  </i>
   <i type="logical" name="LFXHEG"> F  </i>
   <i type="int" name="NATURALO">     2</i>
   <i type="logical" name="L2ORDER"> F  </i>
   <i type="logical" name="LMP2LT"> F  </i>
   <i type="logical" name="LUSEW"> F  </i>
   <i name="ENCUTGW">     -2.00000000</i>
   <i name="ENCUTGWSOFT">     -2.00000000</i>
   <i name="ENCUTLF">     -1.00000000</i>
   <i type="int" name="LMAXMP2">    -1</i>
   <i name="SCISSOR">      0.00000000</i>
   <i type="int" name="NOMEGA">     0</i>
   <i type="int" name="NOMEGAR">     0</i>
   <i type="int" name="NBANDSGW">    -1</i>
   <i type="int" name="NBANDSO">    -1</i>
   <i type="int" name="NBANDSV">    -1</i>
   <i type="int" name="NELM">     1</i>
   <i type="int" name="NELMHF">     1</i>
   <i type="int" name="DIM">     3</i>
   <i type="int" name="ANTIRES">     0</i>
   <i name="OMEGAMAX">    -30.00000000</i>
   <i name="OMEGAMIN">    -30.00000000</i>
   <i name="OMEGATL">   -200.00000000</i>
   <i type="int" name="OMEGAGRID">   140</i>
   <i name="CSHIFT">     -0.10000000</i>
   <i type="logical" name="SELFENERGY"> F  </i>
   <i type="logical" name="LSPECTRAL"> F  </i>
   <i type="logical" name="LSPECTRALGW"> F  </i>
   <i type="logical" name="LSINGLES"> F  </i>
   <i type="logical" name="LFERMIGW"> F  </i>
   <i type="logical" name="ODDONLYGW"> F  </i>
   <i type="logical" name="EVENONLYGW"> F  </i>
   <i type="int" name="NKREDLFX">     1</i>
   <i type="int" name="NKREDLFY">     1</i>
   <i type="int" name="NKREDLFZ">     1</i>
   <i type="int" name="MAXMEM">  2800</i>
   <i type="int" name="TELESCOPE">     0</i>
   <i type="int" name="TAUPAR">     1</i>
   <i type="int" name="OMEGAPAR">    -1</i>
   <i name="LAMBDA">      1.00000000</i>
  </separator>
  <separator name="External order field" >
   <i name="OFIELD_KAPPA">      0.00000000</i>
   <v name="OFIELD_K">      0.00000000      0.00000000      0.00000000</v>
   <i name="OFIELD_Q6_NEAR">      0.00000000</i>
   <i name="OFIELD_Q6_FAR">      0.00000000</i>
   <i name="OFIELD_A">      0.00000000</i>
  </separator>
 </parameters>
 <atominfo>
  <atoms>      62 </atoms>
  <types>       5 </types>
  <array name="atoms" >
   <dimension dim="1">ion</dimension>
   <field type="string">element</field>
   <field type="int">atomtype</field>
   <set>
    <rc><c>Li</c><c>   1</c></rc>
    <rc><c>Li</c><c>   1</c></rc>
    <rc><c>Li</c><c>   1</c></rc>
    <rc><c>Li</c><c>   1</c></rc>
    <rc><c>Li</c><c>   1</c></rc>
    <rc><c>Li</c><c>   1</c></rc>
    <rc><c>Li</c><c>   1</c></rc>
    <rc><c>Li</c><c>   1</c></rc>
    <rc><c>Li</c><c>   1</c></rc>
    <rc><c>Li</c><c>   1</c></rc>
    <rc><c>Li</c><c>   1</c></rc>
    <rc><c>Li</c><c>   1</c></rc>
    <rc><c>Mg</c><c>   2</c></rc>
    <rc><c>Mg</c><c>   2</c></rc>
    <rc><c>Bi</c><c>   3</c></rc>
    <rc><c>Bi</c><c>   3</c></rc>
    <rc><c>Bi</c><c>   3</c></rc>
    <rc><c>Bi</c><c>   3</c></rc>
    <rc><c>Bi</c><c>   3</c></rc>
    <rc><c>Bi</c><c>   3</c></rc>
    <rc><c>Bi</c><c>   3</c></rc>
    <rc><c>Bi</c><c>   3</c></rc>
    <rc><c>Bi</c><c>   3</c></rc>
    <rc><c>Bi</c><c>   3</c></rc>
    <rc><c>Bi</c><c>   3</c></rc>
    <rc><c>Bi</c><c>   3</c></rc>
    <rc><c>Bi</c><c>   3</c></rc>
    <rc><c>Bi</c><c>   3</c></rc>
    <rc><c>Bi</c><c>   3</c></rc>
    <rc><c>Bi</c><c>   3</c></rc>
    <rc><c>S </c><c>   4</c></rc>
    <rc><c>S </c><c>   4</c></rc>
    <rc><c>S </c><c>   4</c></rc>
    <rc><c>S </c><c>   4</c></rc>
    <rc><c>S </c><c>   4</c></rc>
    <rc><c>S </c><c>   4</c></rc>
    <rc><c>S </c><c>   4</c></rc>
    <rc><c>S </c><c>   4</c></rc>
    <rc><c>S </c><c>   4</c></rc>
    <rc><c>S </c><c>   4</c></rc>
    <rc><c>S </c><c>   4</c></rc>
    <rc><c>S </c><c>   4</c></rc>
    <rc><c>S </c><c>   4</c></rc>
    <rc><c>S </c><c>   4</c></rc>
    <rc><c>S </c><c>   4</c></rc>
    <rc><c>S </c><c>   4</c></rc>
    <rc><c>O </c><c>   5</c></rc>
    <rc><c>O </c><c>   5</c></rc>
    <rc><c>O </c><c>   5</c></rc>
    <rc><c>O </c><c>   5</c></rc>
    <rc><c>O </c><c>   5</c></rc>
    <rc><c>O </c><c>   5</c></rc>
    <rc><c>O </c><c>   5</c></rc>
    <rc><c>O </c><c>   5</c></rc>
    <rc><c>O </c><c>   5</c></rc>
    <rc><c>O </c><c>   5</c></rc>
    <rc><c>O </c><c>   5</c></rc>
    <rc><c>O </c><c>   5</c></rc>
    <rc><c>O </c><c>   5</c></rc>
    <rc><c>O </c><c>   5</c></rc>
    <rc><c>O </c><c>   5</c></rc>
    <rc><c>O </c><c>   5</c></rc>
   </set>
  </array>
  <array name="atomtypes" >
   <dimension dim="1">type</dimension>
   <field type="int">atomspertype</field>
   <field type="string">element</field>
   <field>mass</field>
   <field>valence</field>
   <field type="string">pseudopotential</field>
   <set>
    <rc><c>  12</c><c>Li</c><c>      7.01000000</c><c>      3.00000000</c><c>  PAW_PBE Li_sv 10Sep2004               </c></rc>
    <rc><c>   2</c><c>Mg</c><c>     24.30500000</c><c>      2.00000000</c><c>  PAW_PBE Mg 13Apr2007                  </c></rc>
    <rc><c>  16</c><c>Bi</c><c>    208.98000000</c><c>     15.00000000</c><c>  PAW_PBE Bi_d 06Sep2000                </c></rc>
    <rc><c>  16</c><c>S </c><c>     32.06600000</c><c>      6.00000000</c><c>  PAW_PBE S 06Sep2000                   </c></rc>
    <rc><c>  16</c><c>O </c><c>     16.00000000</c><c>      6.00000000</c><c>  PAW_PBE O 08Apr2002                   </c></rc>
   </set>
  </array>
 </atominfo>
 <structure name="initialpos" >
  <crystal>
   <varray name="basis" >
    <v>      11.17850000       0.00000000       0.00000000 </v>
    <v>       0.00000000       9.57460000       0.00000000 </v>
    <v>       0.00000000       0.00000000      11.18240000 </v>
   </varray>
   <i name="volume">   1196.84853820 </i>
   <varray name="rec_basis" >
    <v>       0.08945744       0.00000000       0.00000000 </v>
    <v>       0.00000000       0.10444301       0.00000000 </v>
    <v>       0.00000000       0.00000000       0.08942624 </v>
   </varray>
  </crystal>
  <varray name="positions" >
   <v>       0.37539000       0.00017000       0.43687000 </v>
   <v>       0.12461000       0.99984000       0.18687000 </v>
   <v>       0.62539000       0.99984000       0.43687000 </v>
   <v>       0.87539000       0.00017000       0.43687000 </v>
   <v>       0.12539000       0.99984000       0.93687000 </v>
   <v>       0.37539000       0.00017000       0.93687000 </v>
   <v>       0.12461000       0.99984000       0.68687000 </v>
   <v>       0.37461000       0.00017000       0.68687000 </v>
   <v>       0.62539000       0.99984000       0.93687000 </v>
   <v>       0.87539000       0.00017000       0.93687000 </v>
   <v>       0.62461000       0.99984000       0.68687000 </v>
   <v>       0.87461000       0.00017000       0.68687000 </v>
   <v>       0.37461000       0.00017000       0.18687000 </v>
   <v>       0.87461000       0.00017000       0.18687000 </v>
   <v>       0.00013000       0.29519000       0.06281000 </v>
   <v>       0.25013000       0.70481000       0.06281000 </v>
   <v>       0.24987000       0.29519000       0.31282000 </v>
   <v>       0.49987000       0.70481000       0.31282000 </v>
   <v>       0.50013000       0.29519000       0.06281000 </v>
   <v>       0.75013000       0.70481000       0.06281000 </v>
   <v>       0.74987000       0.29519000       0.31282000 </v>
   <v>       0.99987000       0.70481000       0.31282000 </v>
   <v>       0.00013000       0.29519000       0.56281000 </v>
   <v>       0.25013000       0.70481000       0.56281000 </v>
   <v>       0.24987000       0.29519000       0.81282000 </v>
   <v>       0.49987000       0.70481000       0.81282000 </v>
   <v>       0.50013000       0.29519000       0.56281000 </v>
   <v>       0.75013000       0.70481000       0.56281000 </v>
   <v>       0.74987000       0.29519000       0.81282000 </v>
   <v>       0.99987000       0.70481000       0.81282000 </v>
   <v>       0.25005000       0.32677000       0.06286000 </v>
   <v>       0.00005000       0.67323000       0.06286000 </v>
   <v>       0.49995000       0.32677000       0.31286000 </v>
   <v>       0.24995000       0.67323000       0.31286000 </v>
   <v>       0.75005000       0.32677000       0.06286000 </v>
   <v>       0.50005000       0.67323000       0.06286000 </v>
   <v>       0.99995000       0.32677000       0.31286000 </v>
   <v>       0.74995000       0.67323000       0.31286000 </v>
   <v>       0.25005000       0.32677000       0.56286000 </v>
   <v>       0.00005000       0.67323000       0.56286000 </v>
   <v>       0.49995000       0.32677000       0.81286000 </v>
   <v>       0.24995000       0.67323000       0.81286000 </v>
   <v>       0.75005000       0.32677000       0.56286000 </v>
   <v>       0.50005000       0.67323000       0.56286000 </v>
   <v>       0.99995000       0.32677000       0.81286000 </v>
   <v>       0.74995000       0.67323000       0.81286000 </v>
   <v>       0.49987000       0.07798000       0.06246000 </v>
   <v>       0.24987000       0.92202000       0.06246000 </v>
   <v>       0.25013000       0.07798000       0.31246000 </v>
   <v>       0.00013000       0.92202000       0.31246000 </v>
   <v>       0.99987000       0.07798000       0.06246000 </v>
   <v>       0.74987000       0.92202000       0.06246000 </v>
   <v>       0.75013000       0.07798000       0.31246000 </v>
   <v>       0.50013000       0.92202000       0.31246000 </v>
   <v>       0.49987000       0.07798000       0.56246000 </v>
   <v>       0.24987000       0.92202000       0.56246000 </v>
   <v>       0.25013000       0.07798000       0.81246000 </v>
   <v>       0.00013000       0.92202000       0.81246000 </v>
   <v>       0.99987000       0.07798000       0.56246000 </v>
   <v>       0.74987000       0.92202000       0.56246000 </v>
   <v>       0.75013000       0.07798000       0.81246000 </v>
   <v>       0.50013000       0.92202000       0.81246000 </v>
  </varray>
 </structure>
 <calculation>
  <scstep>
   <time name="dav">   65.89   66.14</time>
   <time name="total">   65.98   66.25</time>
   <energy>
    <i name="alphaZ">   1079.87189334 </i>
    <i name="ewald"> -31109.27838768 </i>
    <i name="hartreedc"> -12715.72340709 </i>
    <i name="XCdc">   1468.88516272 </i>
    <i name="pawpsdc">  36917.91861236 </i>
    <i name="pawaedc"> -36503.41947684 </i>
    <i name="eentropy">      0.00000000 </i>
    <i name="bandstr">   1588.96392426 </i>
    <i name="atom">  45173.57650906 </i>
    <i name="e_fr_energy">   5900.79483013 </i>
    <i name="e_wo_entrp">   5900.79483013 </i>
    <i name="e_0_energy">   5900.79483013 </i>
   </energy>
  </scstep>
  <scstep>
   <time name="dav">   65.73   65.95</time>
   <time name="total">   65.74   65.96</time>
   <energy>
    <i name="e_fr_energy">    761.89223503 </i>
    <i name="e_wo_entrp">    761.89223503 </i>
    <i name="e_0_energy">    761.89223503 </i>
   </energy>
  </scstep>
  <scstep>
   <time name="dav">   71.90   72.16</time>
   <time name="total">   71.90   72.17</time>
   <energy>
    <i name="e_fr_energy">   -241.79393378 </i>
    <i name="e_wo_entrp">   -241.79393378 </i>
    <i name="e_0_energy">   -241.79393378 </i>
   </energy>
  </scstep>
  <scstep>
   <time name="dav">   81.33   81.57</time>
   <time name="total">   81.34   81.58</time>
   <energy>
    <i name="e_fr_energy">   -352.46799138 </i>
    <i name="e_wo_entrp">   -352.46799138 </i>
    <i name="e_0_energy">   -352.46799138 </i>
   </energy>
  </scstep>
  <scstep>
   <time name="dav">  104.89  105.24</time>
   <time name="total">  105.63  105.99</time>
   <energy>
    <i name="e_fr_energy">   -361.17258330 </i>
    <i name="e_wo_entrp">   -361.17258330 </i>
    <i name="e_0_energy">   -361.17258330 </i>
   </energy>
  </scstep>
  <scstep>
   <time name="dav">   93.16   93.44</time>
   <time name="total">   93.96   94.26</time>
   <energy>
    <i name="e_fr_energy">   -301.42094563 </i>
    <i name="e_wo_entrp">   -301.42094563 </i>
    <i name="e_0_energy">   -301.42094563 </i>
   </energy>
  </scstep>
  <scstep>
   <time name="dav">   71.42   71.65</time>
   <time name="total">   72.23   72.46</time>
   <energy>
    <i name="e_fr_energy">   -303.59798081 </i>
    <i name="e_wo_entrp">   -303.59798081 </i>
    <i name="e_0_energy">   -303.59798081 </i>
   </energy>
  </scstep>
  <scstep>
   <time name="dav">   85.25   85.52</time>
   <time name="total">   86.05   86.32</time>
   <energy>
    <i name="e_fr_energy">   -302.22401690 </i>
    <i name="e_wo_entrp">   -302.22401690 </i>
    <i name="e_0_energy">   -302.22401690 </i>
   </energy>
  </scstep>
  <scstep>
   <time name="dav">   96.90   97.17</time>
   <time name="total">   97.70   97.98</time>
   <energy>
    <i name="e_fr_energy">   -301.61172217 </i>
    <i name="e_wo_entrp">   -301.61172217 </i>
    <i name="e_0_energy">   -301.61172217 </i>
   </energy>
  </scstep>
  <scstep>
   <time name="dav">   82.07   82.33</time>
   <time name="total">   82.88   83.13</time>
   <energy>
    <i name="e_fr_energy">   -301.58022754 </i>
    <i name="e_wo_entrp">   -301.58022754 </i>
    <i name="e_0_energy">   -301.58022754 </i>
   </energy>
  </scstep>
  <scstep>
   <time name="dav">   83.38   83.64</time>
   <time name="total">   84.18   84.45</time>
   <energy>
    <i name="e_fr_energy">   -301.59311877 </i>
    <i name="e_wo_entrp">   -301.59311877 </i>
    <i name="e_0_energy">   -301.59311877 </i>
   </energy>
  </scstep>
  <scstep>
   <time name="dav">   82.52   82.78</time>
   <time name="total">   83.32   83.59</time>
   <energy>
    <i name="e_fr_energy">   -301.59712186 </i>
    <i name="e_wo_entrp">   -301.59712186 </i>
    <i name="e_0_energy">   -301.59712186 </i>
   </energy>
  </scstep>
  <scstep>
   <time name="dav">   85.10   85.37</time>
   <time name="total">   85.90   86.17</time>
   <energy>
    <i name="e_fr_energy">   -301.59834933 </i>
    <i name="e_wo_entrp">   -301.59834933 </i>
    <i name="e_0_energy">   -301.59834933 </i>
   </energy>
  </scstep>
  <scstep>
   <time name="dav">   83.06   83.31</time>
   <time name="total">   83.87   84.12</time>
   <energy>
    <i name="e_fr_energy">   -301.59853133 </i>
    <i name="e_wo_entrp">   -301.59853133 </i>
    <i name="e_0_energy">   -301.59853133 </i>
   </energy>
  </scstep>
  <scstep>
   <time name="dav">   87.70   87.96</time>
   <time name="total">   88.50   88.76</time>
   <energy>
    <i name="e_fr_energy">   -301.59856683 </i>
    <i name="e_wo_entrp">   -301.59856683 </i>
    <i name="e_0_energy">   -301.59856683 </i>
   </energy>
  </scstep>
  <scstep>
   <time name="dav">   70.98   71.18</time>
   <time name="total">   71.78   71.99</time>
   <energy>
    <i name="e_fr_energy">   -301.59858246 </i>
    <i name="e_wo_entrp">   -301.59858246 </i>
    <i name="e_0_energy">   -301.59858246 </i>
   </energy>
  </scstep>
  <scstep>
   <time name="dav">   71.99   72.22</time>
   <time name="total">   72.79   73.03</time>
   <energy>
    <i name="e_fr_energy">   -301.59858416 </i>
    <i name="e_wo_entrp">   -301.59858416 </i>
    <i name="e_0_energy">   -301.59858416 </i>
   </energy>
  </scstep>
  <scstep>
   <time name="dav">   57.33   57.50</time>
   <time name="total">   57.40   57.57</time>
   <energy>
    <i name="alphaZ">   1079.87189334 </i>
    <i name="ewald"> -31109.27838768 </i>
    <i name="hartreedc"> -12951.63912845 </i>
    <i name="XCdc">   1491.84694426 </i>
    <i name="pawpsdc">  43943.72334506 </i>
    <i name="pawaedc"> -43504.61071546 </i>
    <i name="eentropy">      0.00000000 </i>
    <i name="bandstr">  -4425.08904475 </i>
    <i name="atom">  45173.57650906 </i>
    <i name="e_fr_energy">   -301.59858461 </i>
    <i name="e_wo_entrp">   -301.59858461 </i>
    <i name="e_0_energy">   -301.59858461 </i>
   </energy>
  </scstep>
  <structure>
   <crystal>
    <varray name="basis" >
     <v>      11.17850000       0.00000000       0.00000000 </v>
     <v>       0.00000000       9.57460000       0.00000000 </v>
     <v>       0.00000000       0.00000000      11.18240000 </v>
    </varray>
    <i name="volume">   1196.84853820 </i>
    <varray name="rec_basis" >
     <v>       0.08945744       0.00000000       0.00000000 </v>
     <v>       0.00000000       0.10444301       0.00000000 </v>
     <v>       0.00000000       0.00000000       0.08942624 </v>
    </varray>
   </crystal>
   <varray name="positions" >
    <v>       0.37539000       0.00017000       0.43687000 </v>
    <v>       0.12461000       0.99984000       0.18687000 </v>
    <v>       0.62539000       0.99984000       0.43687000 </v>
    <v>       0.87539000       0.00017000       0.43687000 </v>
    <v>       0.12539000       0.99984000       0.93687000 </v>
    <v>       0.37539000       0.00017000       0.93687000 </v>
    <v>       0.12461000       0.99984000       0.68687000 </v>
    <v>       0.37461000       0.00017000       0.68687000 </v>
    <v>       0.62539000       0.99984000       0.93687000 </v>
    <v>       0.87539000       0.00017000       0.93687000 </v>
    <v>       0.62461000       0.99984000       0.68687000 </v>
    <v>       0.87461000       0.00017000       0.68687000 </v>
    <v>       0.37461000       0.00017000       0.18687000 </v>
    <v>       0.87461000       0.00017000       0.18687000 </v>
    <v>       0.00013000       0.29519000       0.06281000 </v>
    <v>       0.25013000       0.70481000       0.06281000 </v>
    <v>       0.24987000       0.29519000       0.31282000 </v>
    <v>       0.49987000       0.70481000       0.31282000 </v>
    <v>       0.50013000       0.29519000       0.06281000 </v>
    <v>       0.75013000       0.70481000       0.06281000 </v>
    <v>       0.74987000       0.29519000       0.31282000 </v>
    <v>       0.99987000       0.70481000       0.31282000 </v>
    <v>       0.00013000       0.29519000       0.56281000 </v>
    <v>       0.25013000       0.70481000       0.56281000 </v>
    <v>       0.24987000       0.29519000       0.81282000 </v>
    <v>       0.49987000       0.70481000       0.81282000 </v>
    <v>       0.50013000       0.29519000       0.56281000 </v>
    <v>       0.75013000       0.70481000       0.56281000 </v>
    <v>       0.74987000       0.29519000       0.81282000 </v>
    <v>       0.99987000       0.70481000       0.81282000 </v>
    <v>       0.25005000       0.32677000       0.06286000 </v>
    <v>       0.00005000       0.67323000       0.06286000 </v>
    <v>       0.49995000       0.32677000       0.31286000 </v>
    <v>       0.24995000       0.67323000       0.31286000 </v>
    <v>       0.75005000       0.32677000       0.06286000 </v>
    <v>       0.50005000       0.67323000       0.06286000 </v>
    <v>       0.99995000       0.32677000       0.31286000 </v>
    <v>       0.74995000       0.67323000       0.31286000 </v>
    <v>       0.25005000       0.32677000       0.56286000 </v>
    <v>       0.00005000       0.67323000       0.56286000 </v>
    <v>       0.49995000       0.32677000       0.81286000 </v>
    <v>       0.24995000       0.67323000       0.81286000 </v>
    <v>       0.75005000       0.32677000       0.56286000 </v>
    <v>       0.50005000       0.67323000       0.56286000 </v>
    <v>       0.99995000       0.32677000       0.81286000 </v>
    <v>       0.74995000       0.67323000       0.81286000 </v>
    <v>       0.49987000       0.07798000       0.06246000 </v>
    <v>       0.24987000       0.92202000       0.06246000 </v>
    <v>       0.25013000       0.07798000       0.31246000 </v>
    <v>       0.00013000       0.92202000       0.31246000 </v>
    <v>       0.99987000       0.07798000       0.06246000 </v>
    <v>       0.74987000       0.92202000       0.06246000 </v>
    <v>       0.75013000       0.07798000       0.31246000 </v>
    <v>       0.50013000       0.92202000       0.31246000 </v>
    <v>       0.49987000       0.07798000       0.56246000 </v>
    <v>       0.24987000       0.92202000       0.56246000 </v>
    <v>       0.25013000       0.07798000       0.81246000 </v>
    <v>       0.00013000       0.92202000       0.81246000 </v>
    <v>       0.99987000       0.07798000       0.56246000 </v>
    <v>       0.74987000       0.92202000       0.56246000 </v>
    <v>       0.75013000       0.07798000       0.81246000 </v>
    <v>       0.50013000       0.92202000       0.81246000 </v>
   </varray>
  </structure>
  <varray name="forces" >
   <v>      -0.33761442      -0.06564257       0.35604358 </v>
   <v>       0.00928369      -0.00114802       0.55157504 </v>
   <v>      -0.00885400      -0.00063523      -0.29788753 </v>
   <v>       0.32714526       0.06203561       0.36044367 </v>
   <v>      -0.00637378      -0.00002070      -0.21070075 </v>
   <v>       0.17006087       0.06460963      -0.35092866 </v>
   <v>       0.00986393      -0.00015156      -0.52440880 </v>
   <v>      -0.15947599      -0.06279392      -0.19267798 </v>
   <v>      -0.00833365      -0.00005375       0.30889501 </v>
   <v>      -0.18093979      -0.06634849      -0.35517030 </v>
   <v>       0.00775444      -0.00013954      -0.02416447 </v>
   <v>       0.17245675       0.06064934      -0.18848988 </v>
   <v>       0.80910815       0.11065790       0.32461033 </v>
   <v>      -0.76783127      -0.12365887       0.32160322 </v>
   <v>       0.02294996       1.05412517      -0.11142846 </v>
   <v>      -0.03178804      -1.05652728      -0.11117976 </v>
   <v>      -0.17954520       0.01620938       0.44196907 </v>
   <v>       0.18447728       0.03386236       0.11186255 </v>
   <v>       0.21578303      -0.01141071       0.02381569 </v>
   <v>      -0.22991938       0.00545728       0.02257137 </v>
   <v>      -0.17520956      -0.02017099       0.11353121 </v>
   <v>       0.19249022      -0.01434354       0.43967001 </v>
   <v>       0.13813892      -1.02868355      -0.08703894 </v>
   <v>      -0.15075947       1.03552046      -0.08808677 </v>
   <v>       0.01093875       0.01061223      -0.25881863 </v>
   <v>      -0.00873998      -0.00343592      -0.17970433 </v>
   <v>      -0.05778565       0.00021948       0.02622821 </v>
   <v>       0.04416521      -0.00065975       0.02615834 </v>
   <v>       0.01980949       0.00342961      -0.17988845 </v>
   <v>       0.00234158      -0.01074713      -0.25831658 </v>
   <v>      -0.04496500       0.11712355       0.03760941 </v>
   <v>       0.04305172      -0.11840369       0.03655628 </v>
   <v>      -0.06172216       0.14020655      -0.09893027 </v>
   <v>       0.05217600      -0.12366275      -0.31906535 </v>
   <v>       0.15063326       0.08861254       0.02399640 </v>
   <v>      -0.15109077      -0.09073509       0.02126963 </v>
   <v>      -0.05242129       0.12252654      -0.31745345 </v>
   <v>       0.06443337      -0.14035057      -0.09967040 </v>
   <v>       0.11453985       0.19468620       0.02007264 </v>
   <v>      -0.11714460      -0.19504879       0.02042593 </v>
   <v>       0.00374911       0.18476274       0.07044640 </v>
   <v>      -0.00380477      -0.18580157       0.26310126 </v>
   <v>      -0.10835447       0.22519587       0.00295089 </v>
   <v>       0.10877313      -0.22655355       0.00489521 </v>
   <v>       0.00455718       0.18514921       0.26176856 </v>
   <v>      -0.00173594      -0.18486922       0.07107473 </v>
   <v>      -1.17831812      -0.01814683      -0.14812108 </v>
   <v>       0.38839814       0.82672213       0.44786967 </v>
   <v>       1.03012312      -0.08353080      -1.28150912 </v>
   <v>      -1.05733187       0.09141994      -1.29018295 </v>
   <v>      -0.38475982      -0.82533955       0.45087347 </v>
   <v>       1.18714771       0.02252231      -0.14974603 </v>
   <v>       1.09852500       0.05487932       0.05185413 </v>
   <v>      -1.11618630      -0.05463996       0.04372546 </v>
   <v>       0.07785492       0.03505732       0.00558478 </v>
   <v>       0.66721912      -0.84116451       0.61283469 </v>
   <v>      -0.00401432      -0.02360281       0.23387434 </v>
   <v>      -0.00747833       0.02495067       0.23369688 </v>
   <v>      -0.65960925       0.83905519       0.61231456 </v>
   <v>      -0.06538643      -0.03276156       0.00476221 </v>
   <v>      -0.00277990      -0.01669518       0.08168642 </v>
   <v>      -0.00767564       0.01761942       0.08134768 </v>
  </varray>
  <varray name="stress" >
   <v>      -9.76818473      -0.01215692      -0.04106782 </v>
   <v>      -0.01215733     -14.61593036       0.05124127 </v>
   <v>      -0.04106816       0.05124172      -7.65057850 </v>
  </varray>
  <energy>
   <i name="e_fr_energy">   -317.45488865 </i>
   <i name="e_wo_entrp">   -317.45488865 </i>
   <i name="e_0_energy">      0.00000000 </i>
  </energy>
  <time name="totalsc"> 1577.29 1582.21</time>
 </calculation>
 <calculation>
  <scstep>
   <time name="dav">   70.18   70.47</time>
   <time name="total">   71.00   71.30</time>
   <energy>
    <i name="alphaZ">   1100.23654255 </i>
    <i name="ewald"> -31298.96547103 </i>
    <i name="hartreedc"> -13032.05383839 </i>
    <i name="XCdc">   1502.86550048 </i>
    <i name="pawpsdc">  43943.73381238 </i>
    <i name="pawaedc"> -43504.62534735 </i>
    <i name="eentropy">      0.00000000 </i>
    <i name="bandstr">  -4187.20831946 </i>
    <i name="atom">  45173.57650906 </i>
    <i name="e_fr_energy">   -302.44061174 </i>
    <i name="e_wo_entrp">   -302.44061174 </i>
    <i name="e_0_energy">   -302.44061174 </i>
   </energy>
  </scstep>
  <scstep>
   <time name="dav">   74.11   74.44</time>
   <time name="total">   74.92   75.27</time>
   <energy>
    <i name="e_fr_energy">   -302.44237134 </i>
    <i name="e_wo_entrp">   -302.44237134 </i>
    <i name="e_0_energy">   -302.44237134 </i>
   </energy>
  </scstep>
  <scstep>
   <time name="dav">   94.56   94.84</time>
   <time name="total">   95.37   95.65</time>
   <energy>
    <i name="e_fr_energy">   -302.21259186 </i>
    <i name="e_wo_entrp">   -302.21259186 </i>
    <i name="e_0_energy">   -302.21259186 </i>
   </energy>
  </scstep>
  <scstep>
   <time name="dav">   86.10   86.08</time>
   <time name="total">   86.91   86.90</time>
   <energy>
    <i name="e_fr_energy">   -302.17171526 </i>
    <i name="e_wo_entrp">   -302.17171526 </i>
    <i name="e_0_energy">   -302.17171526 </i>
   </energy>
  </scstep>
  <scstep>
   <time name="dav">   83.28   83.25</time>
   <time name="total">   84.09   84.07</time>
   <energy>
    <i name="e_fr_energy">   -302.17451642 </i>
    <i name="e_wo_entrp">   -302.17451642 </i>
    <i name="e_0_energy">   -302.17451642 </i>
   </energy>
  </scstep>
  <scstep>
   <time name="dav">   90.69   90.69</time>
   <time name="total">   91.50   91.51</time>
   <energy>
    <i name="e_fr_energy">   -302.17382792 </i>
    <i name="e_wo_entrp">   -302.17382792 </i>
    <i name="e_0_energy">   -302.17382792 </i>
   </energy>
  </scstep>
  <scstep>
   <time name="dav">   83.25   83.23</time>
   <time name="total">   84.07   84.04</time>
   <energy>
    <i name="e_fr_energy">   -302.17370352 </i>
    <i name="e_wo_entrp">   -302.17370352 </i>
    <i name="e_0_energy">   -302.17370352 </i>
   </energy>
  </scstep>
  <scstep>
   <time name="dav">   96.90   96.87</time>
   <time name="total">   97.72   97.69</time>
   <energy>
    <i name="e_fr_energy">   -302.17377380 </i>
    <i name="e_wo_entrp">   -302.17377380 </i>
    <i name="e_0_energy">   -302.17377380 </i>
   </energy>
  </scstep>
  <scstep>
   <time name="dav">   80.32   80.30</time>
   <time name="total">   81.13   81.12</time>
   <energy>
    <i name="e_fr_energy">   -302.17377735 </i>
    <i name="e_wo_entrp">   -302.17377735 </i>
    <i name="e_0_energy">   -302.17377735 </i>
   </energy>
  </scstep>
  <scstep>
   <time name="dav">   76.16   76.19</time>
   <time name="total">   76.98   77.01</time>
   <energy>
    <i name="e_fr_energy">   -302.17378163 </i>
    <i name="e_wo_entrp">   -302.17378163 </i>
    <i name="e_0_energy">   -302.17378163 </i>
   </energy>
  </scstep>
  <scstep>
   <time name="dav">   86.46   86.53</time>
   <time name="total">   87.27   87.34</time>
   <energy>
    <i name="e_fr_energy">   -302.17377925 </i>
    <i name="e_wo_entrp">   -302.17377925 </i>
    <i name="e_0_energy">   -302.17377925 </i>
   </energy>
  </scstep>
  <scstep>
   <time name="dav">   63.74   63.86</time>
   <time name="total">   63.82   63.94</time>
   <energy>
    <i name="alphaZ">   1100.23654255 </i>
    <i name="ewald"> -31298.96547103 </i>
    <i name="hartreedc"> -12856.60709026 </i>
    <i name="XCdc">   1494.67812250 </i>
    <i name="pawpsdc">  44311.75413845 </i>
    <i name="pawaedc"> -43875.29461056 </i>
    <i name="eentropy">      0.00000000 </i>
    <i name="bandstr">  -4351.55191991 </i>
    <i name="atom">  45173.57650906 </i>
    <i name="e_fr_energy">   -302.17377919 </i>
    <i name="e_wo_entrp">   -302.17377919 </i>
    <i name="e_0_energy">   -302.17377919 </i>
   </energy>
  </scstep>
  <structure>
   <crystal>
    <varray name="basis" >
     <v>      11.11503044      -0.00007899      -0.00026684 </v>
     <v>      -0.00006766       9.49325793       0.00028517 </v>
     <v>      -0.00026694       0.00033306      11.13267241 </v>
    </varray>
    <i name="volume">   1174.69566498 </i>
    <varray name="rec_basis" >
     <v>       0.08996826       0.00000064       0.00000216 </v>
     <v>       0.00000075       0.10533792      -0.00000315 </v>
     <v>       0.00000216      -0.00000270       0.08982569 </v>
    </varray>
   </crystal>
   <varray name="positions" >
    <v>       0.37393297      -0.00016075       0.43840603 </v>
    <v>       0.12465007       0.99983422       0.18924958 </v>
    <v>       0.62535179       0.99983680       0.43558487 </v>
    <v>       0.87680185       0.00048257       0.43842501 </v>
    <v>       0.12536249       0.99983990       0.93596100 </v>
    <v>       0.37612393       0.00049554       0.93535604 </v>
    <v>       0.12465257       0.99983924       0.68460762 </v>
    <v>       0.37392176      -0.00014639       0.68603876 </v>
    <v>       0.62535403       0.99983973       0.93820262 </v>
    <v>       0.87460912      -0.00016430       0.93533774 </v>
    <v>       0.62464347       0.99983930       0.68676575 </v>
    <v>       0.87535427       0.00047559       0.68605682 </v>
    <v>       0.37810184       0.00072756       0.18827042 </v>
    <v>       0.87129630      -0.00045307       0.18825745 </v>
    <v>       0.00022904       0.30050132       0.06232928 </v>
    <v>       0.24999281       0.69948657       0.06233035 </v>
    <v>       0.24909514       0.29527167       0.31472672 </v>
    <v>       0.50066614       0.70498062       0.31330259 </v>
    <v>       0.50106125       0.29513251       0.06291274 </v>
    <v>       0.74913775       0.70483750       0.06290738 </v>
    <v>       0.74911385       0.29508837       0.31330979 </v>
    <v>       0.00070072       0.70473773       0.31471681 </v>
    <v>       0.00072616       0.29000687       0.56243450 </v>
    <v>       0.24947937       0.71002758       0.56242998 </v>
    <v>       0.24991721       0.29524347       0.81170342 </v>
    <v>       0.49983228       0.70479269       0.81204473 </v>
    <v>       0.49988062       0.29519111       0.56292315 </v>
    <v>       0.75032060       0.70480668       0.56292285 </v>
    <v>       0.74995549       0.29520728       0.81204393 </v>
    <v>       0.99988011       0.70475585       0.81170558 </v>
    <v>       0.24985595       0.32736014       0.06302225 </v>
    <v>       0.00023580       0.67263341       0.06301771 </v>
    <v>       0.49968363       0.32747645       0.31243320 </v>
    <v>       0.25017517       0.67260691       0.31148350 </v>
    <v>       0.75070008       0.32721648       0.06296352 </v>
    <v>       0.49939794       0.67277282       0.06295176 </v>
    <v>       0.99972377       0.32738736       0.31149046 </v>
    <v>       0.75022807       0.67252283       0.31243001 </v>
    <v>       0.25054432       0.32775095       0.56294660 </v>
    <v>      -0.00045556       0.67224723       0.56294812 </v>
    <v>       0.49996618       0.32770095       0.81316392 </v>
    <v>       0.24993358       0.67229382       0.81399506 </v>
    <v>       0.74958238       0.32790467       0.56287273 </v>
    <v>       0.50051943       0.67208849       0.56288112 </v>
    <v>       0.99996967       0.32770289       0.81398931 </v>
    <v>       0.74994251       0.67229852       0.81316663 </v>
    <v>       0.49478477       0.07788857       0.06182098 </v>
    <v>       0.25154620       0.92618553       0.06439218 </v>
    <v>       0.25457567       0.07755912       0.30693137 </v>
    <v>      -0.00443309       0.92248063       0.30689395 </v>
    <v>       0.99820951       0.07382144       0.06440514 </v>
    <v>       0.75499333       0.92213348       0.06181397 </v>
    <v>       0.75487087       0.07825652       0.31268371 </v>
    <v>       0.49531291       0.92174469       0.31264864 </v>
    <v>       0.50020600       0.07815664       0.56248409 </v>
    <v>       0.25274949       0.91778170       0.56510387 </v>
    <v>       0.25011268       0.07786107       0.81346897 </v>
    <v>       0.00009773       0.92214572       0.81346821 </v>
    <v>       0.99702335       0.08220767       0.56510162 </v>
    <v>       0.74958781       0.92185493       0.56248054 </v>
    <v>       0.75011800       0.07789588       0.81281241 </v>
    <v>       0.50009687       0.92210878       0.81281095 </v>
   </varray>
  </structure>
  <varray name="forces" >
   <v>      -0.26373392      -0.03088072       0.21420552 </v>
   <v>       0.01037129       0.00119183       0.31585845 </v>
   <v>      -0.00583706       0.00106584      -0.27634311 </v>
   <v>       0.25267681       0.02738731       0.21552408 </v>
   <v>      -0.00550749       0.00000510       0.01114270 </v>
   <v>       0.04324752       0.03230668      -0.16992470 </v>
   <v>       0.00693746       0.00005333      -0.31878118 </v>
   <v>      -0.06924208      -0.02940606      -0.07946330 </v>
   <v>      -0.00606984       0.00031144       0.28834524 </v>
   <v>      -0.05700449      -0.03512970      -0.17020399 </v>
   <v>       0.00697599       0.00052016      -0.00638120 </v>
   <v>       0.08156427       0.02778924      -0.07764115 </v>
   <v>       0.41312478       0.00012372      -0.05792119 </v>
   <v>      -0.37167952      -0.01611691      -0.05748230 </v>
   <v>       0.04270880      -0.04439906      -0.04277909 </v>
   <v>      -0.05319947       0.04391961      -0.04303519 </v>
   <v>      -0.12187528       0.16557197       0.14432438 </v>
   <v>       0.08988368      -0.37485505       0.04130087 </v>
   <v>       0.06736446       0.27103541       0.00254756 </v>
   <v>      -0.07657739      -0.26972011       0.00202688 </v>
   <v>      -0.08159157       0.37151973       0.04243450 </v>
   <v>       0.13048976      -0.16297745       0.14287562 </v>
   <v>       0.07145441       1.11746876      -0.08225152 </v>
   <v>      -0.07860288      -1.12311884      -0.08307290 </v>
   <v>       0.01016676       0.28334669      -0.03781796 </v>
   <v>      -0.01484761      -0.29373717      -0.09446309 </v>
   <v>      -0.00037805       0.36247325       0.03294192 </v>
   <v>      -0.00976792      -0.36037851       0.03316146 </v>
   <v>       0.02351521       0.29427907      -0.09429543 </v>
   <v>      -0.00071717      -0.28238156      -0.03727215 </v>
   <v>       0.00233576       0.23715369       0.02768863 </v>
   <v>      -0.00350468      -0.23779746       0.02741651 </v>
   <v>      -0.04962848       0.13475088      -0.05440916 </v>
   <v>       0.04462491      -0.15250643      -0.14968769 </v>
   <v>       0.07307130       0.10582710       0.02530484 </v>
   <v>      -0.07332958      -0.10734837       0.02424268 </v>
   <v>      -0.04445219       0.15225725      -0.14850081 </v>
   <v>       0.05047902      -0.13497940      -0.05466812 </v>
   <v>       0.06396505       0.11810902       0.01948775 </v>
   <v>      -0.06422059      -0.11840259       0.01922377 </v>
   <v>       0.00908581       0.18204352       0.03329106 </v>
   <v>      -0.00318853      -0.19036522       0.10093022 </v>
   <v>      -0.05247219       0.21115985      -0.00732953 </v>
   <v>       0.05272084      -0.21130400      -0.00697750 </v>
   <v>       0.00339847       0.18989576       0.10026047 </v>
   <v>      -0.00831767      -0.18228991       0.03341647 </v>
   <v>      -0.66420518      -0.14972877      -0.24055654 </v>
   <v>       0.29741746      -0.30751234       0.26509775 </v>
   <v>       0.68710707      -0.07464834      -0.66852627 </v>
   <v>      -0.71226774       0.07982767      -0.67936073 </v>
   <v>      -0.29081959       0.30747112       0.26635132 </v>
   <v>       0.67086346       0.14714178      -0.24605227 </v>
   <v>       0.63997362      -0.20273901       0.27060811 </v>
   <v>      -0.65904449       0.21865371       0.25735385 </v>
   <v>       0.01941155      -0.32239689      -0.01195483 </v>
   <v>       0.50285470       1.27020593       0.51228495 </v>
   <v>      -0.01392171      -0.26205435       0.00308906 </v>
   <v>       0.00698815       0.26208723       0.00264220 </v>
   <v>      -0.49992627      -1.26047806       0.51289960 </v>
   <v>      -0.01114293       0.32076434      -0.01205031 </v>
   <v>      -0.02313366      -0.27709250       0.01037649 </v>
   <v>       0.01542886       0.27702679       0.01054829 </v>
  </varray>
  <varray name="stress" >
   <v>       5.28833514      -0.15421893      -0.02958884 </v>
   <v>      -0.15421877       5.43510609       0.04996213 </v>
   <v>      -0.02958905       0.04996177       4.43101385 </v>
  </varray>
  <energy>
   <i name="e_fr_energy">   -318.25118905 </i>
   <i name="e_wo_entrp">   -318.25118905 </i>
   <i name="e_0_energy">      0.00000000 </i>
  </energy>
  <time name="totalsc"> 1108.98 1110.16</time>
 </calculation>
 <calculation>
  <scstep>
   <time name="dav">   72.51   72.86</time>
   <time name="total">   73.32   73.67</time>
   <energy>
    <i name="alphaZ">   1103.75845692 </i>
    <i name="ewald"> -31330.42023885 </i>
    <i name="hartreedc"> -12871.28532995 </i>
    <i name="XCdc">   1496.57676315 </i>
    <i name="pawpsdc">  44311.71709347 </i>
    <i name="pawaedc"> -43875.26412239 </i>
    <i name="eentropy">      0.00000000 </i>
    <i name="bandstr">  -4310.81803357 </i>
    <i name="atom">  45173.57650906 </i>
    <i name="e_fr_energy">   -302.15890214 </i>
    <i name="e_wo_entrp">   -302.15890214 </i>
    <i name="e_0_energy">   -302.15890214 </i>
   </energy>
  </scstep>
  <scstep>
   <time name="dav">   72.32   72.70</time>
   <time name="total">   73.13   73.51</time>
   <energy>
    <i name="e_fr_energy">   -302.15452233 </i>
    <i name="e_wo_entrp">   -302.15452233 </i>
    <i name="e_0_energy">   -302.15452233 </i>
   </energy>
  </scstep>
  <scstep>
   <time name="dav">   90.78   91.29</time>
   <time name="total">   91.58   92.10</time>
   <energy>
    <i name="e_fr_energy">   -302.14780152 </i>
    <i name="e_wo_entrp">   -302.14780152 </i>
    <i name="e_0_energy">   -302.14780152 </i>
   </energy>
  </scstep>
  <scstep>
   <time name="dav">   88.90   89.21</time>
   <time name="total">   89.71   90.03</time>
   <energy>
    <i name="e_fr_energy">   -302.14710719 </i>
    <i name="e_wo_entrp">   -302.14710719 </i>
    <i name="e_0_energy">   -302.14710719 </i>
   </energy>
  </scstep>
  <scstep>
   <time name="dav">   86.66   86.94</time>
   <time name="total">   87.47   87.76</time>
   <energy>
    <i name="e_fr_energy">   -302.14717443 </i>
    <i name="e_wo_entrp">   -302.14717443 </i>
    <i name="e_0_energy">   -302.14717443 </i>
   </energy>
  </scstep>
  <scstep>
   <time name="dav">   88.03   88.32</time>
   <time name="total">   88.84   89.14</time>
   <energy>
    <i name="e_fr_energy">   -302.14717727 </i>
    <i name="e_wo_entrp">   -302.14717727 </i>
    <i name="e_0_energy">   -302.14717727 </i>
   </energy>
  </scstep>
  <scstep>
   <time name="dav">   80.85   81.05</time>
   <time name="total">   81.66   81.86</time>
   <energy>
    <i name="e_fr_energy">   -302.14719166 </i>
    <i name="e_wo_entrp">   -302.14719166 </i>
    <i name="e_0_energy">   -302.14719166 </i>
   </energy>
  </scstep>
  <scstep>
   <time name="dav">   96.31   96.33</time>
   <time name="total">   97.13   97.14</time>
   <energy>
    <i name="e_fr_energy">   -302.14719511 </i>
    <i name="e_wo_entrp">   -302.14719511 </i>
    <i name="e_0_energy">   -302.14719511 </i>
   </energy>
  </scstep>
  <scstep>
   <time name="dav">   64.74   64.73</time>
   <time name="total">   64.82   64.81</time>
   <energy>
    <i name="alphaZ">   1103.75845692 </i>
    <i name="ewald"> -31330.42023885 </i>
    <i name="hartreedc"> -12841.28757918 </i>
    <i name="XCdc">   1495.17431591 </i>
    <i name="pawpsdc">  44379.60633916 </i>
    <i name="pawaedc"> -43943.69164706 </i>
    <i name="eentropy">      0.00000000 </i>
    <i name="bandstr">  -4338.86335067 </i>
    <i name="atom">  45173.57650906 </i>
    <i name="e_fr_energy">   -302.14719470 </i>
    <i name="e_wo_entrp">   -302.14719470 </i>
    <i name="e_0_energy">   -302.14719470 </i>
   </energy>
  </scstep>
  <structure>
   <crystal>
    <varray name="basis" >
     <v>      11.10421563      -0.00009245      -0.00031231 </v>
     <v>      -0.00007919       9.47939776       0.00033376 </v>
     <v>      -0.00031242       0.00038982      11.12419914 </v>
    </varray>
    <i name="volume">   1170.94740147 </i>
    <varray name="rec_basis" >
     <v>       0.09005589       0.00000075       0.00000253 </v>
     <v>       0.00000088       0.10549193      -0.00000370 </v>
     <v>       0.00000253      -0.00000317       0.08989411 </v>
    </varray>
   </crystal>
   <varray name="positions" >
    <v>       0.37368329      -0.00021760       0.43866892 </v>
    <v>       0.12465694       0.99983321       0.18965686 </v>
    <v>       0.62534524       0.99983626       0.43536491 </v>
    <v>       0.87704380       0.00053628       0.43869116 </v>
    <v>       0.12535778       0.99983988       0.93580542 </v>
    <v>       0.37624969       0.00055150       0.93509692 </v>
    <v>       0.12465986       0.99983912       0.68422040 </v>
    <v>       0.37380381      -0.00020076       0.68589648 </v>
    <v>       0.62534788       0.99983967       0.93843071 </v>
    <v>       0.87447530      -0.00022175       0.93507548 </v>
    <v>       0.62464920       0.99983918       0.68674791 </v>
    <v>       0.87548180       0.00052811       0.68591765 </v>
    <v>       0.37870023       0.00082338       0.18851012 </v>
    <v>       0.87072844      -0.00056016       0.18849490 </v>
    <v>       0.00024602       0.30141410       0.06224698 </v>
    <v>       0.24996930       0.69857173       0.06224828 </v>
    <v>       0.24896237       0.29528570       0.31505307 </v>
    <v>       0.50080258       0.70500994       0.31338519 </v>
    <v>       0.50122083       0.29512263       0.06293033 </v>
    <v>       0.74896771       0.70484222       0.06292404 </v>
    <v>       0.74898428       0.29507090       0.31339362 </v>
    <v>       0.00084309       0.70472530       0.31504146 </v>
    <v>       0.00082832       0.28911613       0.56237026 </v>
    <v>       0.24936788       0.71092424       0.56236491 </v>
    <v>       0.24992529       0.29525267       0.81151231 </v>
    <v>       0.49982581       0.70478972       0.81191204 </v>
    <v>       0.49983788       0.29519129       0.56294252 </v>
    <v>       0.75035327       0.70480610       0.56294217 </v>
    <v>       0.74997014       0.29521025       0.81191111 </v>
    <v>       0.99988183       0.70474655       0.81151484 </v>
    <v>       0.24982269       0.32746156       0.06305002 </v>
    <v>       0.00026764       0.67253088       0.06304471 </v>
    <v>       0.49963798       0.32759785       0.31236015 </v>
    <v>       0.25021376       0.67249984       0.31124791 </v>
    <v>       0.75081149       0.32729321       0.06298124 </v>
    <v>       0.49928620       0.67269425       0.06296747 </v>
    <v>       0.99968499       0.32749347       0.31125605 </v>
    <v>       0.75027572       0.67240130       0.31235641 </v>
    <v>       0.25062903       0.32791953       0.56296142 </v>
    <v>      -0.00054219       0.67207833       0.56296321 </v>
    <v>       0.49996895       0.32786093       0.81321593 </v>
    <v>       0.24993077       0.67213293       0.81418934 </v>
    <v>       0.74950225       0.32809967       0.56287490 </v>
    <v>       0.50059987       0.67189231       0.56288474 </v>
    <v>       0.99997304       0.32786321       0.81418259 </v>
    <v>       0.74994122       0.67213844       0.81321911 </v>
    <v>       0.49391333       0.07787285       0.06171159 </v>
    <v>       0.25183345       0.92690138       0.06472287 </v>
    <v>       0.25533748       0.07748683       0.30598513 </v>
    <v>      -0.00521507       0.92255982       0.30594127 </v>
    <v>       0.99792496       0.07310676       0.06473807 </v>
    <v>       0.75587130       0.92215299       0.06170342 </v>
    <v>       0.75568329       0.07830404       0.31272201 </v>
    <v>       0.49448743       0.92169737       0.31268091 </v>
    <v>       0.50026357       0.07818700       0.56248822 </v>
    <v>       0.25324295       0.91705332       0.56555641 </v>
    <v>       0.25010971       0.07784063       0.81364166 </v>
    <v>       0.00009220       0.92216732       0.81364076 </v>
    <v>       0.99653554       0.08293419       0.56555372 </v>
    <v>       0.74953946       0.92182656       0.56248406 </v>
    <v>       0.75011595       0.07788142       0.81287272 </v>
    <v>       0.50009120       0.92212403       0.81287101 </v>
   </varray>
  </structure>
  <varray name="forces" >
   <v>      -0.25006306      -0.02345865       0.18913912 </v>
   <v>       0.01049532       0.00157995       0.27446188 </v>
   <v>      -0.00535719       0.00137302      -0.27228767 </v>
   <v>       0.23890663       0.01999855       0.18996612 </v>
   <v>      -0.00537228       0.00002063       0.04941364 </v>
   <v>       0.02101373       0.02641794      -0.14003308 </v>
   <v>       0.00643725       0.00011841      -0.28264824 </v>
   <v>      -0.05188837      -0.02186630      -0.05799991 </v>
   <v>      -0.00565756       0.00038834       0.28452030 </v>
   <v>      -0.03521453      -0.02942254      -0.13960109 </v>
   <v>       0.00685043       0.00063610      -0.00294424 </v>
   <v>       0.06409148       0.02035862      -0.05658163 </v>
   <v>       0.34332755      -0.01986362      -0.13394644 </v>
   <v>      -0.30289577       0.00380197      -0.13302867 </v>
   <v>       0.04561738      -0.19708668      -0.02941322 </v>
   <v>      -0.05624102       0.19679487      -0.02975653 </v>
   <v>      -0.11184047       0.18714385       0.09235569 </v>
   <v>       0.07456452      -0.44627883       0.02907293 </v>
   <v>       0.04324942       0.31845344      -0.00145945 </v>
   <v>      -0.05157763      -0.31574317      -0.00187800 </v>
   <v>      -0.06637236       0.43980352       0.03011099 </v>
   <v>       0.11964904      -0.18424706       0.09102003 </v>
   <v>       0.06878446       1.60396059      -0.08970149 </v>
   <v>      -0.07485408      -1.61315459      -0.09060906 </v>
   <v>       0.00989445       0.33251014       0.00037885 </v>
   <v>      -0.01596073      -0.34561964      -0.07929907 </v>
   <v>       0.00960750       0.42783770       0.03405530 </v>
   <v>      -0.01913045      -0.42527169       0.03432552 </v>
   <v>       0.02420388       0.34626649      -0.07907626 </v>
   <v>      -0.00111968      -0.33132452       0.00093125 </v>
   <v>       0.01093642       0.25695222       0.02580265 </v>
   <v>      -0.01198548      -0.25748819       0.02565546 </v>
   <v>      -0.04838713       0.13377800      -0.04654392 </v>
   <v>       0.04372283      -0.15665563      -0.11968734 </v>
   <v>       0.05906327       0.10817938       0.02548016 </v>
   <v>      -0.05933208      -0.10957365       0.02470825 </v>
   <v>      -0.04343377       0.15657622      -0.11858967 </v>
   <v>       0.04894403      -0.13401059      -0.04672223 </v>
   <v>       0.05498701       0.10404634       0.02033653 </v>
   <v>      -0.05490777      -0.10430620       0.01996183 </v>
   <v>       0.00986945       0.18136610       0.02700644 </v>
   <v>      -0.00314254      -0.19053947       0.07105843 </v>
   <v>      -0.04177499       0.20836332      -0.00932377 </v>
   <v>       0.04193013      -0.20828727      -0.00926267 </v>
   <v>       0.00329671       0.19011282       0.07051858 </v>
   <v>      -0.00928064      -0.18162733       0.02704459 </v>
   <v>      -0.57098311      -0.16656709      -0.26187460 </v>
   <v>       0.27890568      -0.46912104       0.23079887 </v>
   <v>       0.61812815      -0.06116471      -0.55378258 </v>
   <v>      -0.64249963       0.06543958      -0.56453115 </v>
   <v>      -0.27179857       0.46905259       0.23164522 </v>
   <v>       0.57739105       0.16266336      -0.26799057 </v>
   <v>       0.55413396      -0.24033992       0.31847655 </v>
   <v>      -0.57309989       0.25882216       0.30472875 </v>
   <v>       0.00900541      -0.38758996      -0.01515678 </v>
   <v>       0.48259195       1.74736950       0.50194825 </v>
   <v>      -0.01588361      -0.30552491      -0.03711776 </v>
   <v>       0.00970621       0.30530297      -0.03759466 </v>
   <v>      -0.48052572      -1.73437470       0.50267055 </v>
   <v>      -0.00146034       0.38525304      -0.01510989 </v>
   <v>      -0.02682107      -0.32403996      -0.00214695 </v>
   <v>       0.01955623       0.32380614      -0.00189413 </v>
  </varray>
  <varray name="stress" >
   <v>       7.95912431      -0.15517590      -0.02672779 </v>
   <v>      -0.15517611       9.60611751       0.04884134 </v>
   <v>      -0.02672780       0.04884148       6.60361664 </v>
  </varray>
  <energy>
   <i name="e_fr_energy">   -318.26370384 </i>
   <i name="e_wo_entrp">   -318.26370384 </i>
   <i name="e_0_energy">      0.00000000 </i>
  </energy>
  <time name="totalsc">  861.79  864.29</time>
 </calculation>
 <calculation>
  <scstep>
   <time name="dav">   65.64   65.70</time>
   <time name="total">   66.45   66.51</time>
   <energy>
    <i name="alphaZ">   1104.22927917 </i>
    <i name="ewald"> -31433.77749240 </i>
    <i name="hartreedc"> -12751.13479813 </i>
    <i name="XCdc">   1494.85393128 </i>
    <i name="pawpsdc">  44379.50176828 </i>
    <i name="pawaedc"> -43943.58043121 </i>
    <i name="eentropy">      0.00000000 </i>
    <i name="bandstr">  -4325.49252421 </i>
    <i name="atom">  45173.57650906 </i>
    <i name="e_fr_energy">   -301.82375814 </i>
    <i name="e_wo_entrp">   -301.82375814 </i>
    <i name="e_0_energy">   -301.82375814 </i>
   </energy>
  </scstep>
  <scstep>
   <time name="dav">   75.58   75.56</time>
   <time name="total">   76.40   76.37</time>
   <energy>
    <i name="e_fr_energy">   -302.60337785 </i>
    <i name="e_wo_entrp">   -302.60337785 </i>
    <i name="e_0_energy">   -302.60337785 </i>
   </energy>
  </scstep>
  <scstep>
   <time name="dav">  100.70  100.68</time>
   <time name="total">  101.51  101.49</time>
   <energy>
    <i name="e_fr_energy">   -302.59342362 </i>
    <i name="e_wo_entrp">   -302.59342362 </i>
    <i name="e_0_energy">   -302.59342362 </i>
   </energy>
  </scstep>
  <scstep>
   <time name="dav">   77.91   77.96</time>
   <time name="total">   78.71   78.78</time>
   <energy>
    <i name="e_fr_energy">   -302.57720921 </i>
    <i name="e_wo_entrp">   -302.57720921 </i>
    <i name="e_0_energy">   -302.57720921 </i>
   </energy>
  </scstep>
  <scstep>
   <time name="dav">   84.43   84.54</time>
   <time name="total">   85.24   85.36</time>
   <energy>
    <i name="e_fr_energy">   -302.57029007 </i>
    <i name="e_wo_entrp">   -302.57029007 </i>
    <i name="e_0_energy">   -302.57029007 </i>
   </energy>
  </scstep>
  <scstep>
   <time name="dav">   83.11   83.17</time>
   <time name="total">   83.92   83.99</time>
   <energy>
    <i name="e_fr_energy">   -302.57084192 </i>
    <i name="e_wo_entrp">   -302.57084192 </i>
    <i name="e_0_energy">   -302.57084192 </i>
   </energy>
  </scstep>
  <scstep>
   <time name="dav">   91.14   91.26</time>
   <time name="total">   91.95   92.08</time>
   <energy>
    <i name="e_fr_energy">   -302.57080967 </i>
    <i name="e_wo_entrp">   -302.57080967 </i>
    <i name="e_0_energy">   -302.57080967 </i>
   </energy>
  </scstep>
  <scstep>
   <time name="dav">   87.50   87.54</time>
   <time name="total">   88.31   88.36</time>
   <energy>
    <i name="e_fr_energy">   -302.57077779 </i>
    <i name="e_wo_entrp">   -302.57077779 </i>
    <i name="e_0_energy">   -302.57077779 </i>
   </energy>
  </scstep>
  <scstep>
   <time name="dav">   76.08   76.13</time>
   <time name="total">   76.90   76.94</time>
   <energy>
    <i name="e_fr_energy">   -302.57077668 </i>
    <i name="e_wo_entrp">   -302.57077668 </i>
    <i name="e_0_energy">   -302.57077668 </i>
   </energy>
  </scstep>
  <scstep>
   <time name="dav">   76.34   76.42</time>
   <time name="total">   77.15   77.24</time>
   <energy>
    <i name="e_fr_energy">   -302.57078071 </i>
    <i name="e_wo_entrp">   -302.57078071 </i>
    <i name="e_0_energy">   -302.57078071 </i>
   </energy>
  </scstep>
  <scstep>
   <time name="dav">   69.57   69.66</time>
   <time name="total">   69.65   69.74</time>
   <energy>
    <i name="alphaZ">   1104.22927917 </i>
    <i name="ewald"> -31433.77749240 </i>
    <i name="hartreedc"> -12743.03487514 </i>
    <i name="XCdc">   1494.42852132 </i>
    <i name="pawpsdc">  44225.64859046 </i>
    <i name="pawaedc"> -43787.34561910 </i>
    <i name="eentropy">      0.00000000 </i>
    <i name="bandstr">  -4336.29569509 </i>
    <i name="atom">  45173.57650906 </i>
    <i name="e_fr_energy">   -302.57078171 </i>
    <i name="e_wo_entrp">   -302.57078171 </i>
    <i name="e_0_energy">   -302.57078171 </i>
   </energy>
  </scstep>
  <structure>
   <crystal>
    <varray name="basis" >
     <v>      11.10570739      -0.00091237      -0.00060577 </v>
     <v>      -0.00077921       9.47151586       0.00071219 </v>
     <v>      -0.00060640       0.00083349      11.12721455 </v>
    </varray>
    <i name="volume">   1170.44813189 </i>
    <varray name="rec_basis" >
     <v>       0.09004379       0.00000741       0.00000491 </v>
     <v>       0.00000867       0.10557972      -0.00000791 </v>
     <v>       0.00000490      -0.00000676       0.08986975 </v>
    </varray>
   </crystal>
   <varray name="positions" >
    <v>       0.37193971      -0.00051385       0.44024941 </v>
    <v>       0.12471735       0.99983592       0.19204196 </v>
    <v>       0.62530357       0.99983988       0.43365263 </v>
    <v>       0.87872175       0.00080742       0.44028610 </v>
    <v>       0.12532262       0.99983992       0.93542172 </v>
    <v>       0.37676848       0.00085642       0.93369770 </v>
    <v>       0.12470776       0.99983922       0.68187856 </v>
    <v>       0.37320702      -0.00048175       0.68519280 </v>
    <v>       0.62530665       0.99984099       0.94021367 </v>
    <v>       0.87387921      -0.00054397       0.93366661 </v>
    <v>       0.62469304       0.99984130       0.68667446 </v>
    <v>       0.87615446       0.00079651       0.68522982 </v>
    <v>       0.38200221       0.00108430       0.18890366 </v>
    <v>       0.86767343      -0.00092557       0.18888354 </v>
    <v>       0.00046258       0.30386796       0.06185408 </v>
    <v>       0.24969311       0.69610933       0.06185500 </v>
    <v>       0.24810757       0.29608638       0.31652802 </v>
    <v>       0.50154270       0.70332359       0.31377807 </v>
    <v>       0.50193597       0.29636521       0.06298779 </v>
    <v>       0.74818690       0.70359218       0.06297684 </v>
    <v>       0.74829658       0.29677338       0.31379428 </v>
    <v>       0.00175873       0.70394186       0.31650591 </v>
    <v>       0.00142690       0.29238532       0.56183519 </v>
    <v>       0.24871532       0.70763926       0.56182416 </v>
    <v>       0.24998792       0.29661946       0.81083471 </v>
    <v>       0.49974815       0.70339247       0.81116961 </v>
    <v>       0.49971897       0.29690854       0.56312769 </v>
    <v>       0.75040378       0.70309778       0.56312819 </v>
    <v>       0.75010508       0.29661014       0.81116888 </v>
    <v>       0.99988412       0.70338415       0.81084053 </v>
    <v>       0.24974202       0.32885300       0.06323684 </v>
    <v>       0.00033970       0.67113333       0.06322835 </v>
    <v>       0.49931006       0.32856617       0.31194149 </v>
    <v>       0.25050057       0.67149072       0.31000187 </v>
    <v>       0.75140960       0.32800000       0.06313130 </v>
    <v>       0.49868597       0.67197532       0.06310773 </v>
    <v>       0.99939846       0.32849887       0.31001791 </v>
    <v>       0.75061265       0.67143164       0.31193529 </v>
    <v>       0.25111834       0.32893623       0.56308358 </v>
    <v>      -0.00103807       0.67105946       0.56308505 </v>
    <v>       0.50001263       0.32915730       0.81349300 </v>
    <v>       0.24991003       0.67079650       0.81512241 </v>
    <v>       0.74907446       0.32962882       0.56285071 </v>
    <v>       0.50102929       0.67035929       0.56286597 </v>
    <v>       0.99999634       0.32919583       0.81511025 </v>
[...]
       <r>   11.6399    0.0000 </r>
       <r>   11.6503    0.0000 </r>
       <r>   11.6959    0.0000 </r>
       <r>   11.6992    0.0000 </r>
      </set>
     </set>
    </set>
   </array>
  </eigenvalues>
  <separator name="orbital magnetization" >
   <v name="MAGDIPOLOUT">      0.00000000      0.00000000      0.00000000</v>
  </separator>
  <dos>
   <i name="efermi">      4.59701902 </i>
   <total>
    <array>
     <dimension dim="1">gridpoints</dimension>
     <dimension dim="2">spin</dimension>
     <field>energy</field>
     <field>total</field>
     <field>integrated</field>
     <set>
      <set comment="spin 1">
       <r>   -42.3825     0.0000     0.0000 </r>
       <r>   -42.1902     0.0000     0.0000 </r>
       <r>   -41.9979     0.0000     0.0000 </r>
       <r>   -41.8055     0.0000     0.0000 </r>
       <r>   -41.6132     0.0000     0.0000 </r>
       <r>   -41.4208     0.0000     0.0000 </r>
       <r>   -41.2285     0.0000     0.0000 </r>
       <r>   -41.0362     0.0000     0.0000 </r>
       <r>   -40.8438     0.0000     0.0000 </r>
       <r>   -40.6515     0.0000     0.0000 </r>
       <r>   -40.4591     0.0000     0.0000 </r>
       <r>   -40.2668     0.0000     0.0000 </r>
       <r>   -40.0744     0.0000     0.0000 </r>
       <r>   -39.8821     0.0000     0.0000 </r>
       <r>   -39.6898     0.0000     6.0000 </r>
       <r>   -39.4974     0.0000     8.0000 </r>
       <r>   -39.3051     0.0000    20.0000 </r>
       <r>   -39.1127     0.0000    24.0000 </r>
       <r>   -38.9204     0.0000    24.0000 </r>
       <r>   -38.7280     0.0000    24.0000 </r>
       <r>   -38.5357     0.0000    24.0000 </r>
       <r>   -38.3434     0.0000    24.0000 </r>
       <r>   -38.1510     0.0000    24.0000 </r>
       <r>   -37.9587     0.0000    24.0000 </r>
       <r>   -37.7663     0.0000    24.0000 </r>
       <r>   -37.5740     0.0000    24.0000 </r>
       <r>   -37.3816     0.0000    24.0000 </r>
       <r>   -37.1893     0.0000    24.0000 </r>
       <r>   -36.9970     0.0000    24.0000 </r>
       <r>   -36.8046     0.0000    24.0000 </r>
       <r>   -36.6123     0.0000    24.0000 </r>
       <r>   -36.4199     0.0000    24.0000 </r>
       <r>   -36.2276     0.0000    24.0000 </r>
       <r>   -36.0353     0.0000    24.0000 </r>
       <r>   -35.8429     0.0000    24.0000 </r>
       <r>   -35.6506     0.0000    24.0000 </r>
       <r>   -35.4582     0.0000    24.0000 </r>
       <r>   -35.2659     0.0000    24.0000 </r>
       <r>   -35.0735     0.0000    24.0000 </r>
       <r>   -34.8812     0.0000    24.0000 </r>
       <r>   -34.6889     0.0000    24.0000 </r>
       <r>   -34.4965     0.0000    24.0000 </r>
       <r>   -34.3042     0.0000    24.0000 </r>
       <r>   -34.1118     0.0000    24.0000 </r>
       <r>   -33.9195     0.0000    24.0000 </r>
       <r>   -33.7271     0.0000    24.0000 </r>
       <r>   -33.5348     0.0000    24.0000 </r>
       <r>   -33.3425     0.0000    24.0000 </r>
       <r>   -33.1501     0.0000    24.0000 </r>
       <r>   -32.9578     0.0000    24.0000 </r>
       <r>   -32.7654     0.0000    24.0000 </r>
       <r>   -32.5731     0.0000    24.0000 </r>
       <r>   -32.3808     0.0000    24.0000 </r>
       <r>   -32.1884     0.0000    24.0000 </r>
       <r>   -31.9961     0.0000    24.0000 </r>
       <r>   -31.8037     0.0000    24.0000 </r>
       <r>   -31.6114     0.0000    24.0000 </r>
       <r>   -31.4190     0.0000    24.0000 </r>
       <r>   -31.2267     0.0000    24.0000 </r>
       <r>   -31.0344     0.0000    24.0000 </r>
       <r>   -30.8420     0.0000    24.0000 </r>
       <r>   -30.6497     0.0000    24.0000 </r>
       <r>   -30.4573     0.0000    24.0000 </r>
       <r>   -30.2650     0.0000    24.0000 </r>
       <r>   -30.0726     0.0000    24.0000 </r>
       <r>   -29.8803     0.0000    24.0000 </r>
       <r>   -29.6880     0.0000    24.0000 </r>
       <r>   -29.4956     0.0000    24.0000 </r>
       <r>   -29.3033     0.0000    24.0000 </r>
       <r>   -29.1109     0.0000    24.0000 </r>
       <r>   -28.9186     0.0000    24.0000 </r>
       <r>   -28.7263     0.0000    24.0000 </r>
       <r>   -28.5339     0.0000    24.0000 </r>
       <r>   -28.3416     0.0000    24.0000 </r>
       <r>   -28.1492     0.0000    24.0000 </r>
       <r>   -27.9569     0.0000    24.0000 </r>
       <r>   -27.7645     0.0000    24.0000 </r>
       <r>   -27.5722     0.0000    24.0000 </r>
       <r>   -27.3799     0.0000    24.0000 </r>
       <r>   -27.1875     0.0000    24.0000 </r>
       <r>   -26.9952     0.0000    24.0000 </r>
       <r>   -26.8028     0.0000    24.0000 </r>
       <r>   -26.6105     0.0000    24.0000 </r>
       <r>   -26.4181     0.0000    24.0000 </r>
       <r>   -26.2258     0.0000    24.0000 </r>
       <r>   -26.0335     0.0000    24.0000 </r>
       <r>   -25.8411     0.0000    24.0000 </r>
       <r>   -25.6488     0.0000    24.0000 </r>
       <r>   -25.4564     0.0000    24.0000 </r>
       <r>   -25.2641     0.0000    24.0000 </r>
       <r>   -25.0718     0.0000    24.0000 </r>
       <r>   -24.8794     0.0000    24.0000 </r>
       <r>   -24.6871     0.0000    24.0000 </r>
       <r>   -24.4947     0.0000    24.0000 </r>
       <r>   -24.3024     0.0000    24.0000 </r>
       <r>   -24.1100     0.0000    24.0000 </r>
       <r>   -23.9177     0.0000    24.0000 </r>
       <r>   -23.7254     0.0000    24.0000 </r>
       <r>   -23.5330     0.0000    24.0000 </r>
       <r>   -23.3407     0.0000    24.0000 </r>
       <r>   -23.1483     0.0000    24.0000 </r>
       <r>   -22.9560     0.0000    24.0000 </r>
       <r>   -22.7636     0.0000    24.0000 </r>
       <r>   -22.5713     0.0000    24.0000 </r>
       <r>   -22.3790     0.0000    24.0000 </r>
       <r>   -22.1866     0.0000    24.0000 </r>
       <r>   -21.9943     0.0000    24.0000 </r>
       <r>   -21.8019     0.0000    24.0000 </r>
       <r>   -21.6096     0.0000    24.0000 </r>
       <r>   -21.4173     0.0000    24.0000 </r>
       <r>   -21.2249     0.0000    24.0000 </r>
       <r>   -21.0326     0.0000    24.0000 </r>
       <r>   -20.8402     0.0000    24.0000 </r>
       <r>   -20.6479     0.0000    24.0000 </r>
       <r>   -20.4555     0.0000    24.0000 </r>
       <r>   -20.2632     0.0000    24.0000 </r>
       <r>   -20.0709     0.0000    24.0000 </r>
       <r>   -19.8785     0.0000    24.0000 </r>
       <r>   -19.6862     0.0000    24.0000 </r>
       <r>   -19.4938     0.0000    24.0000 </r>
       <r>   -19.3015     0.0000    24.0000 </r>
       <r>   -19.1091     0.0000    24.0000 </r>
       <r>   -18.9168     0.0000    24.0000 </r>
       <r>   -18.7245     0.0000    24.0000 </r>
       <r>   -18.5321     0.0000    24.0000 </r>
       <r>   -18.3398     0.0000    92.0000 </r>
       <r>   -18.1474     0.0000   174.0000 </r>
       <r>   -17.9551     0.0000   184.0000 </r>
       <r>   -17.7628     0.0000   184.0000 </r>
       <r>   -17.5704     0.0000   184.0000 </r>
       <r>   -17.3781     0.0000   184.0000 </r>
       <r>   -17.1857     0.0000   184.0000 </r>
       <r>   -16.9934     0.0000   184.0000 </r>
       <r>   -16.8010     0.0000   184.0000 </r>
       <r>   -16.6087     0.0000   184.0000 </r>
       <r>   -16.4164     0.0000   184.0000 </r>
       <r>   -16.2240     0.0000   184.0000 </r>
       <r>   -16.0317     0.0000   184.0000 </r>
       <r>   -15.8393     0.0000   184.0000 </r>
       <r>   -15.6470     0.0000   184.0000 </r>
       <r>   -15.4546     0.0000   184.0000 </r>
       <r>   -15.2623     0.0000   184.0000 </r>
       <r>   -15.0700     0.0000   184.0000 </r>
       <r>   -14.8776     0.0000   184.0000 </r>
       <r>   -14.6853     0.0000   184.0000 </r>
       <r>   -14.4929     0.0000   184.0000 </r>
       <r>   -14.3006     0.0000   184.0000 </r>
       <r>   -14.1083     0.0000   184.0000 </r>
       <r>   -13.9159     0.0000   184.0000 </r>
       <r>   -13.7236     0.0000   184.0000 </r>
       <r>   -13.5312     0.0000   184.0000 </r>
       <r>   -13.3389     0.0000   184.0000 </r>
       <r>   -13.1465     0.0000   184.0000 </r>
       <r>   -12.9542     0.0000   184.0000 </r>
       <r>   -12.7619    59.4363   186.1895 </r>
       <r>   -12.5695     0.0000   192.0000 </r>
       <r>   -12.3772    41.1288   203.4163 </r>
       <r>   -12.1848     0.0000   216.0000 </r>
       <r>   -11.9925     0.0000   216.0000 </r>
       <r>   -11.8001     0.0000   216.0000 </r>
       <r>   -11.6078     0.0000   216.0000 </r>
       <r>   -11.4155     0.0000   216.0000 </r>
       <r>   -11.2231     0.0000   216.0000 </r>
       <r>   -11.0308     0.0000   216.0000 </r>
       <r>   -10.8384     0.0000   216.0000 </r>
       <r>   -10.6461     0.0000   216.0000 </r>
       <r>   -10.4538     0.0000   216.0000 </r>
       <r>   -10.2614     0.0000   216.0000 </r>
       <r>   -10.0691     0.0000   216.0000 </r>
       <r>    -9.8767     0.0000   216.0000 </r>
       <r>    -9.6844     0.0000   216.0000 </r>
       <r>    -9.4920     0.0000   216.0000 </r>
       <r>    -9.2997     0.0000   216.0000 </r>
       <r>    -9.1074     8.5518   216.6245 </r>
       <r>    -8.9150    10.7540   218.9262 </r>
       <r>    -8.7227     4.5788   220.1527 </r>
       <r>    -8.5303    20.8938   222.6526 </r>
       <r>    -8.3380    34.0329   225.3377 </r>
       <r>    -8.1456    15.4421   230.8164 </r>
       <r>    -7.9533     2.0381   232.0091 </r>
       <r>    -7.7610    32.3897   238.0644 </r>
       <r>    -7.5686    38.4929   243.5808 </r>
       <r>    -7.3763    22.2827   245.7078 </r>
       <r>    -7.1839     0.0000   248.0000 </r>
       <r>    -6.9916     0.0000   248.0000 </r>
       <r>    -6.7993     0.0000   248.0000 </r>
       <r>    -6.6069     0.0000   248.0000 </r>
       <r>    -6.4146     0.0000   248.0000 </r>
       <r>    -6.2222     0.0000   248.0000 </r>
       <r>    -6.0299     8.3320   248.3034 </r>
       <r>    -5.8375    34.6988   252.1687 </r>
       <r>    -5.6452     4.2612   256.0512 </r>
       <r>    -5.4529    28.5181   260.3159 </r>
       <r>    -5.2605    24.0078   265.6321 </r>
       <r>    -5.0682    15.4436   269.8227 </r>
       <r>    -4.8758     6.3475   271.8562 </r>
       <r>    -4.6835     5.8881   272.3570 </r>
       <r>    -4.4911    13.0989   274.3306 </r>
       <r>    -4.2988     2.8052   276.2565 </r>
       <r>    -4.1065     5.6954   277.0714 </r>
       <r>    -3.9141    10.4394   278.5256 </r>
       <r>    -3.7218     2.3640   279.5740 </r>
       <r>    -3.5294     1.0959   279.9066 </r>
       <r>    -3.3371     0.0120   279.9999 </r>
       <r>    -3.1448     0.0000   280.0000 </r>
       <r>    -2.9524     0.0000   280.0000 </r>
       <r>    -2.7601     0.0000   280.0000 </r>
       <r>    -2.5677     0.0000   280.0000 </r>
       <r>    -2.3754     0.0000   280.0000 </r>
       <r>    -2.1830     0.0000   280.0000 </r>
       <r>    -1.9907     0.0000   280.0000 </r>
       <r>    -1.7984     0.0000   280.0000 </r>
       <r>    -1.6060     0.0000   280.0000 </r>
       <r>    -1.4137     0.0000   280.0000 </r>
       <r>    -1.2213     0.0000   280.0000 </r>
       <r>    -1.0290     7.1720   280.5376 </r>
       <r>    -0.8366     5.3670   281.9629 </r>
       <r>    -0.6443     9.6593   283.1603 </r>
       <r>    -0.4520    11.0657   285.5380 </r>
       <r>    -0.2596     9.2313   287.2497 </r>
       <r>    -0.0673    24.3542   290.4879 </r>
       <r>     0.1251    31.5966   295.3195 </r>
       <r>     0.3174    45.9569   303.3879 </r>
       <r>     0.5097    36.8541   310.2522 </r>
       <r>     0.7021    34.2574   318.8360 </r>
       <r>     0.8944    35.6073   324.6497 </r>
       <r>     1.0868    31.8550   330.8071 </r>
       <r>     1.2791    48.5585   337.8044 </r>
       <r>     1.4715    39.3995   346.7479 </r>
       <r>     1.6638    37.1848   355.0032 </r>
       <r>     1.8561    50.7638   363.4458 </r>
       <r>     2.0485    61.3800   374.8839 </r>
       <r>     2.2408    33.4358   386.9391 </r>
       <r>     2.4332    31.6651   393.8212 </r>
       <r>     2.6255    54.4578   401.4485 </r>
       <r>     2.8179    85.8159   415.9203 </r>
       <r>     3.0102    53.7706   428.7828 </r>
       <r>     3.2025    59.5150   443.5492 </r>
       <r>     3.3949    46.0231   453.3143 </r>
       <r>     3.5872    22.4830   458.0282 </r>
       <r>     3.7796    47.0506   464.8929 </r>
       <r>     3.9719    13.3493   468.6026 </r>
       <r>     4.1642     8.2807   470.6825 </r>
       <r>     4.3566     3.2325   471.7894 </r>
       <r>     4.5489     0.0000   472.0000 </r>
       <r>     4.7413     0.0000   472.0000 </r>
       <r>     4.9336     0.0000   472.0000 </r>
       <r>     5.1260     0.0000   472.0000 </r>
       <r>     5.3183     0.0000   472.0000 </r>
       <r>     5.5106     1.1383   472.0263 </r>
       <r>     5.7030     6.8991   472.7999 </r>
       <r>     5.8953    10.8123   474.5954 </r>
       <r>     6.0877    29.4593   476.9511 </r>
       <r>     6.2800    14.1930   481.0457 </r>
       <r>     6.4724    12.6751   483.5993 </r>
       <r>     6.6647    12.7574   486.0030 </r>
       <r>     6.8570    14.5612   488.6303 </r>
       <r>     7.0494    16.4223   491.6060 </r>
       <r>     7.2417    19.7616   495.0479 </r>
       <r>     7.4341    27.7226   499.5034 </r>
       <r>     7.6264    41.8733   505.4442 </r>
       <r>     7.8187    23.1728   513.4231 </r>
       <r>     8.0111    30.2370   518.4411 </r>
       <r>     8.2034    31.8312   524.0761 </r>
       <r>     8.3958    41.4462   531.3468 </r>
       <r>     8.5881    23.9145   538.2398 </r>
       <r>     8.7805    16.0089   541.6352 </r>
       <r>     8.9728    39.9086   546.5464 </r>
       <r>     9.1651    35.0309   553.8751 </r>
       <r>     9.3575    29.0401   560.4419 </r>
       <r>     9.5498    25.2208   566.1624 </r>
       <r>     9.7422     0.0081   568.0000 </r>
       <r>     9.9345     0.0878   568.0002 </r>
       <r>    10.1269    15.6950   569.4770 </r>
       <r>    10.3192    11.0465   571.8194 </r>
       <r>    10.5115    18.9286   573.8746 </r>
       <r>    10.7039    21.2885   578.0143 </r>
       <r>    10.8962    34.7674   583.1473 </r>
       <r>    11.0886    35.4564   590.8396 </r>
       <r>    11.2809    19.3895   597.1851 </r>
       <r>    11.4732    19.0713   601.5345 </r>
       <r>    11.6656    23.5571   606.2338 </r>
       <r>    11.8579    20.6155   610.6735 </r>
       <r>    12.0503    10.9769   613.6504 </r>
       <r>    12.2426     5.2119   615.1386 </r>
       <r>    12.4350     2.0440   615.8225 </r>
       <r>    12.6273     0.1352   615.9970 </r>
       <r>    12.8196     0.0000   616.0000 </r>
       <r>    13.0120     0.0000   616.0000 </r>
       <r>    13.2043     0.0000   616.0000 </r>
       <r>    13.3967     0.0000   616.0000 </r>
       <r>    13.5890     0.0000   616.0000 </r>
       <r>    13.7814     0.0000   616.0000 </r>
       <r>    13.9737     0.0000   616.0000 </r>
       <r>    14.1660     0.0000   616.0000 </r>
       <r>    14.3584     0.0000   616.0000 </r>
       <r>    14.5507     0.0000   616.0000 </r>
       <r>    14.7431     0.0000   616.0000 </r>
       <r>    14.9354     0.0000   616.0000 </r>
       <r>    15.1278     0.0000   616.0000 </r>
       <r>    15.3201     0.0000   616.0000 </r>
      </set>
     </set>
    </array>
   </total>
  </dos>
 </calculation>
 <structure name="finalpos" >
  <crystal>
   <varray name="basis" >
    <v>      11.13434253       0.01024692      -0.00000960 </v>
    <v>       0.00840303       9.44350875       0.00001398 </v>
    <v>      -0.00001230      -0.00001749      11.13764918 </v>
   </varray>
   <i name="volume">   1171.09234834 </i>
   <varray name="rec_basis" >
    <v>       0.08981229      -0.00007992       0.00000010 </v>
    <v>      -0.00009745       0.10589293       0.00000017 </v>
    <v>       0.00000008      -0.00000013       0.08978555 </v>
   </varray>
  </crystal>
  <varray name="positions" >
   <v>       0.36535038      -0.00152300       0.44441691 </v>
   <v>       0.12499944       0.00000138       0.19856198 </v>
   <v>       0.62500026       0.00000955       0.42433858 </v>
   <v>       0.88465244       0.00154470       0.44442433 </v>
   <v>       0.12501447       0.99999666       0.93678049 </v>
   <v>       0.37341487       0.00225164       0.92878434 </v>
   <v>       0.12500582       0.00001242       0.67394580 </v>
   <v>       0.37959642      -0.00001324       0.68797309 </v>
   <v>       0.62501105       0.00000248       0.94927520 </v>
   <v>       0.87660368      -0.00224454       0.92878945 </v>
   <v>       0.62500490       0.00001147       0.68465894 </v>
   <v>       0.87041596       0.00002824       0.68797842 </v>
   <v>       0.38661571      -0.00341832       0.18374738 </v>
   <v>       0.86337756       0.00342806       0.18375371 </v>
   <v>      -0.00068767       0.30779249       0.06325588 </v>
   <v>       0.25068649       0.69220913       0.06324859 </v>
   <v>       0.25145811       0.30356372       0.31227690 </v>
   <v>       0.49799573       0.69345058       0.31607800 </v>
   <v>       0.49818677       0.30520479       0.06023523 </v>
   <v>       0.75181316       0.69480255       0.06023357 </v>
   <v>       0.75199661       0.30655984       0.31608372 </v>
   <v>      -0.00146506       0.69644290       0.31227368 </v>
   <v>      -0.00125370       0.29649970       0.56525141 </v>
   <v>       0.25125188       0.70352751       0.56524536 </v>
   <v>       0.24955932       0.30028652       0.81212340 </v>
   <v>       0.49978246       0.70128099       0.81161445 </v>
   <v>       0.49978086       0.29970504       0.56286564 </v>
   <v>       0.75021774       0.70031994       0.56286297 </v>
   <v>       0.75022348       0.29873110       0.81161929 </v>
   <v>       0.00044355       0.69972492       0.81212229 </v>
   <v>       0.25135499       0.35252283       0.06329301 </v>
   <v>      -0.00136453       0.64748041       0.06329094 </v>
   <v>       0.49973398       0.34081440       0.31136011 </v>
   <v>       0.25029563       0.65506027       0.31129675 </v>
   <v>       0.75133904       0.33506246       0.06386174 </v>
   <v>       0.49865260       0.66493655       0.06385879 </v>
   <v>       0.99969044       0.34495526       0.31130195 </v>
   <v>       0.75025090       0.65920368       0.31135547 </v>
   <v>       0.25081281       0.33404620       0.56343285 </v>
   <v>      -0.00082511       0.66597750       0.56343120 </v>
   <v>       0.50048257       0.34716797       0.81296024 </v>
   <v>       0.24990457       0.65282622       0.81312227 </v>
   <v>       0.75038987       0.35071415       0.56350111 </v>
   <v>       0.49959792       0.64930954       0.56349874 </v>
   <v>       0.00008694       0.34718312       0.81312972 </v>
   <v>       0.74950880       0.65284540       0.81295561 </v>
   <v>       0.48349886       0.08428896       0.05187430 </v>
   <v>       0.25608390       0.91723661       0.06873689 </v>
   <v>       0.26577949       0.08524146       0.29237132 </v>
   <v>      -0.01578563       0.91476621       0.29237400 </v>
   <v>       0.99391743       0.08276669       0.06874802 </v>
   <v>       0.76650343       0.91571783       0.05187255 </v>
   <v>       0.76733934       0.08579140       0.32064890 </v>
   <v>       0.48265411       0.91422074       0.32064376 </v>
   <v>       0.50279258       0.07972232       0.56254269 </v>
   <v>       0.26416524       0.91896780       0.57782981 </v>
   <v>       0.24893582       0.07987792       0.81731224 </v>
   <v>       0.00107992       0.92013316       0.81731550 </v>
   <v>       0.98584054       0.08105937       0.57783521 </v>
   <v>       0.74721498       0.92030202       0.56254509 </v>
   <v>       0.74944963       0.07810367       0.81161250 </v>
   <v>       0.50056625       0.92190867       0.81160773 </v>
  </varray>
 </structure>
</modeling>
