<?xml version="1.0" encoding="ISO-8859-1"?>
<modeling>
 <generator>
  <i name="program" type="string">vasp </i>
  <i name="version" type="string">5.4.4.18Apr17-6-g9f103f2a35  </i>
  <i name="subversion" type="string">(build Jul 31 2017 11:33:29) complex            parallel </i>
  <i name="platform" type="string">LinuxIFC </i>
  <i name="date" type="string">2021 09 29 </i>
  <i name="time" type="string">03:35:07 </i>
 </generator>
 <incar>
  <i type="string" name="SYSTEM"> La2O2S</i>
  <i type="string" name="PREC">normal</i>
  <i type="int" name="NELMIN">     4</i>
  <i type="int" name="IBRION">     2</i>
  <i type="int" name="NFREE">    10</i>
  <i name="EDIFF">      0.00000100</i>
  <i name="EDIFFG">     -0.01000000</i>
  <i type="int" name="NSW">     1</i>
  <i type="int" name="ISIF">     2</i>
  <i name="ENCUT">    600.00000000</i>
  <i name="ENAUG">    900.00000000</i>
  <i type="int" name="ISMEAR">    -5</i>
  <i type="logical" name="LWAVE"> F  </i>
  <i type="logical" name="LCHARG"> F  </i>
  <v type="int" name="KPOINT_BSE">    -1     0     0     0</v>
 </incar>
 <structure name="primitive_cell" >
  <crystal>
   <varray name="basis" >
    <v>      11.17850000       0.00000000       0.00000000 </v>
    <v>       0.00000000       9.57460000       0.00000000 </v>
    <v>       0.00000000       0.00000000      11.18240000 </v>
   </varray>
   <i name="volume">   1196.84853820 </i>
   <varray name="rec_basis" >
    <v>       0.08945744       0.00000000       0.00000000 </v>
    <v>       0.00000000       0.10444301       0.00000000 </v>
    <v>       0.00000000       0.00000000       0.08942624 </v>
   </varray>
  </crystal>
  <varray name="positions" >
   <v>       0.37539000       0.00017000       0.43687000 </v>
   <v>      -0.49987000      -0.07798000       0.31246000 </v>
   <v>       0.25013000       0.07798000       0.31246000 </v>
   <v>       0.49987000       0.07798000      -0.43754000 </v>
   <v>       0.24987000      -0.07798000      -0.43754000 </v>
   <v>       0.37461000       0.00017000       0.18687000 </v>
   <v>       0.37461000       0.00017000      -0.31313000 </v>
   <v>       0.49987000      -0.29519000       0.31282000 </v>
   <v>       0.24987000       0.29519000       0.31282000 </v>
   <v>      -0.49987000       0.29519000      -0.43719000 </v>
   <v>       0.25013000      -0.29519000      -0.43719000 </v>
   <v>       0.49995000       0.32677000       0.31286000 </v>
   <v>       0.24995000      -0.32677000       0.31286000 </v>
   <v>      -0.49995000      -0.32677000      -0.43714000 </v>
   <v>       0.25005000       0.32677000      -0.43714000 </v>
   <v>      -0.37539000      -0.00016000       0.18687000 </v>
   <v>      -0.37539000      -0.00016000      -0.31313000 </v>
   <v>       0.12461000      -0.00016000       0.18687000 </v>
   <v>       0.12461000      -0.00016000      -0.31313000 </v>
   <v>       0.49987000       0.07798000       0.06246000 </v>
   <v>      -0.24987000       0.07798000       0.31246000 </v>
   <v>      -0.25013000      -0.07798000      -0.43754000 </v>
   <v>       0.24987000      -0.07798000       0.06246000 </v>
   <v>       0.00013000      -0.07798000       0.31246000 </v>
   <v>      -0.49987000      -0.07798000      -0.18754000 </v>
   <v>      -0.00013000       0.07798000      -0.43754000 </v>
   <v>       0.25013000       0.07798000      -0.18754000 </v>
   <v>      -0.49987000       0.29519000       0.06281000 </v>
   <v>      -0.25013000       0.29519000       0.31282000 </v>
   <v>       0.25013000      -0.29519000       0.06281000 </v>
   <v>      -0.24987000      -0.29519000      -0.43719000 </v>
   <v>      -0.00013000      -0.29519000       0.31282000 </v>
   <v>       0.00013000       0.29519000      -0.43719000 </v>
   <v>       0.49987000      -0.29519000      -0.18718000 </v>
   <v>       0.24987000       0.29519000      -0.18718000 </v>
   <v>      -0.49995000      -0.32677000       0.06286000 </v>
   <v>       0.25005000       0.32677000       0.06286000 </v>
   <v>      -0.25005000      -0.32677000       0.31286000 </v>
   <v>      -0.24995000       0.32677000      -0.43714000 </v>
   <v>      -0.00005000       0.32677000       0.31286000 </v>
   <v>       0.00005000      -0.32677000      -0.43714000 </v>
   <v>       0.49995000       0.32677000      -0.18714000 </v>
   <v>       0.24995000      -0.32677000      -0.18714000 </v>
   <v>      -0.12461000       0.00017000       0.43687000 </v>
   <v>       0.37539000       0.00017000      -0.06313000 </v>
   <v>      -0.25013000      -0.07798000       0.06246000 </v>
   <v>      -0.00013000       0.07798000       0.06246000 </v>
   <v>      -0.24987000       0.07798000      -0.18754000 </v>
   <v>       0.00013000      -0.07798000      -0.18754000 </v>
   <v>      -0.12539000       0.00017000       0.18687000 </v>
   <v>      -0.12539000       0.00017000      -0.31313000 </v>
   <v>      -0.37461000      -0.00016000      -0.06313000 </v>
   <v>      -0.24987000      -0.29519000       0.06281000 </v>
   <v>       0.00013000       0.29519000       0.06281000 </v>
   <v>      -0.25013000       0.29519000      -0.18718000 </v>
   <v>      -0.00013000      -0.29519000      -0.18718000 </v>
   <v>      -0.24995000       0.32677000       0.06286000 </v>
   <v>       0.00005000      -0.32677000       0.06286000 </v>
   <v>      -0.25005000      -0.32677000      -0.18714000 </v>
   <v>      -0.00005000       0.32677000      -0.18714000 </v>
   <v>      -0.12461000       0.00017000      -0.06313000 </v>
  </varray>
 </structure>
 <varray name="primitive_index" >
  <v type="int" >        1 </v>
  <v type="int" >       53 </v>
  <v type="int" >       48 </v>
  <v type="int" >       54 </v>
  <v type="int" >       55 </v>
  <v type="int" >        2 </v>
  <v type="int" >        6 </v>
  <v type="int" >       17 </v>
  <v type="int" >       16 </v>
  <v type="int" >       26 </v>
  <v type="int" >       23 </v>
  <v type="int" >       32 </v>
  <v type="int" >       33 </v>
  <v type="int" >       43 </v>
  <v type="int" >       38 </v>
  <v type="int" >        3 </v>
  <v type="int" >        9 </v>
  <v type="int" >       11 </v>
  <v type="int" >       13 </v>
  <v type="int" >       46 </v>
  <v type="int" >       52 </v>
  <v type="int" >       59 </v>
  <v type="int" >       47 </v>
  <v type="int" >       49 </v>
  <v type="int" >       61 </v>
  <v type="int" >       58 </v>
  <v type="int" >       56 </v>
  <v type="int" >       18 </v>
  <v type="int" >       20 </v>
  <v type="int" >       15 </v>
  <v type="int" >       27 </v>
  <v type="int" >       21 </v>
  <v type="int" >       22 </v>
  <v type="int" >       25 </v>
  <v type="int" >       24 </v>
  <v type="int" >       35 </v>
  <v type="int" >       30 </v>
  <v type="int" >       37 </v>
  <v type="int" >       42 </v>
  <v type="int" >       36 </v>
  <v type="int" >       39 </v>
  <v type="int" >       40 </v>
  <v type="int" >       41 </v>
  <v type="int" >       12 </v>
  <v type="int" >        5 </v>
  <v type="int" >       51 </v>
  <v type="int" >       50 </v>
  <v type="int" >       60 </v>
  <v type="int" >       57 </v>
  <v type="int" >        4 </v>
  <v type="int" >       10 </v>
  <v type="int" >        7 </v>
  <v type="int" >       19 </v>
  <v type="int" >       14 </v>
  <v type="int" >       28 </v>
  <v type="int" >       29 </v>
  <v type="int" >       34 </v>
  <v type="int" >       31 </v>
  <v type="int" >       45 </v>
  <v type="int" >       44 </v>
  <v type="int" >        8 </v>
 </varray>
 <kpoints>
  <generation param="Gamma">
   <v type="int" name="divisions">       2        2        2 </v>
   <v name="usershift">      0.00000000       0.00000000       0.00000000 </v>
   <v name="genvec1">      0.50000000       0.00000000       0.00000000 </v>
   <v name="genvec2">      0.00000000       0.50000000       0.00000000 </v>
   <v name="genvec3">      0.00000000       0.00000000       0.50000000 </v>
   <v name="shift">      0.00000000       0.00000000       0.00000000 </v>
  </generation>
  <varray name="kpointlist" >
   <v>       0.00000000       0.00000000       0.00000000 </v>
   <v>       0.50000000       0.00000000       0.00000000 </v>
   <v>       0.00000000       0.50000000       0.00000000 </v>
   <v>       0.50000000       0.50000000       0.00000000 </v>
   <v>       0.00000000       0.00000000       0.50000000 </v>
   <v>       0.50000000       0.00000000       0.50000000 </v>
   <v>       0.00000000       0.50000000       0.50000000 </v>
   <v>       0.50000000       0.50000000       0.50000000 </v>
  </varray>
  <varray name="weights" >
   <v>       0.12500000 </v>
   <v>       0.12500000 </v>
   <v>       0.12500000 </v>
   <v>       0.12500000 </v>
   <v>       0.12500000 </v>
   <v>       0.12500000 </v>
   <v>       0.12500000 </v>
   <v>       0.12500000 </v>
  </varray>
  <varray name="tetrahedronlist"  type="int" >
   <v type="int" >        2        1        2        4        5 </v>
   <v type="int" >        2        1        3        4        5 </v>
   <v type="int" >        2        3        4        5        7 </v>
   <v type="int" >        2        2        4        5        6 </v>
   <v type="int" >        2        4        5        6        8 </v>
   <v type="int" >        2        4        5        7        8 </v>
   <v type="int" >        2        1        2        3        6 </v>
   <v type="int" >        2        2        3        4        6 </v>
   <v type="int" >        2        3        4        6        8 </v>
   <v type="int" >        2        1        3        5        6 </v>
   <v type="int" >        2        3        5        6        7 </v>
   <v type="int" >        2        3        6        7        8 </v>
   <v type="int" >        2        2        3        4        7 </v>
   <v type="int" >        2        1        2        3        7 </v>
   <v type="int" >        2        1        2        5        7 </v>
   <v type="int" >        2        2        4        7        8 </v>
   <v type="int" >        2        2        6        7        8 </v>
   <v type="int" >        2        2        5        6        7 </v>
   <v type="int" >        2        1        3        4        8 </v>
   <v type="int" >        2        1        2        4        8 </v>
   <v type="int" >        2        1        2        6        8 </v>
   <v type="int" >        2        1        3        7        8 </v>
   <v type="int" >        2        1        5        7        8 </v>
   <v type="int" >        2        1        5        6        8 </v>
  </varray>
  <i name="volumeweight">      0.02083333 </i>
 </kpoints>
 <parameters>
  <separator name="general" >
   <i type="string" name="SYSTEM">La2O2S</i>
   <i type="logical" name="LCOMPAT"> F  </i>
  </separator>
  <separator name="electronic" >
   <i type="string" name="PREC">normal</i>
   <i name="ENMAX">    600.00000000</i>
   <i name="ENAUG">    900.00000000</i>
   <i name="EDIFF">      0.00000100</i>
   <i type="int" name="IALGO">    38</i>
   <i type="int" name="IWAVPR">    11</i>
   <i type="int" name="NBANDS">   280</i>
   <i name="NELECT">    468.00000000</i>
   <i type="int" name="TURBO">     0</i>
   <i type="int" name="IRESTART">     0</i>
   <i type="int" name="NREBOOT">     0</i>
   <i type="int" name="NMIN">     0</i>
   <i name="EREF">      0.00000000</i>
   <separator name="electronic smearing" >
    <i type="int" name="ISMEAR">    -5</i>
    <i name="SIGMA">      0.20000000</i>
    <i name="KSPACING">      0.50000000</i>
    <i type="logical" name="KGAMMA"> T  </i>
   </separator>
   <separator name="electronic projectors" >
    <i type="logical" name="LREAL"> F  </i>
    <v name="ROPT">      0.00000000      0.00000000      0.00000000      0.00000000      0.00000000</v>
    <i type="int" name="LMAXPAW">  -100</i>
    <i type="int" name="LMAXMIX">     2</i>
    <i type="logical" name="NLSPLINE"> F  </i>
   </separator>
   <separator name="electronic startup" >
    <i type="int" name="ISTART">     0</i>
    <i type="int" name="ICHARG">     2</i>
    <i type="int" name="INIWAV">     1</i>
   </separator>
   <separator name="electronic spin" >
    <i type="int" name="ISPIN">     1</i>
    <i type="logical" name="LNONCOLLINEAR"> F  </i>
    <v name="MAGMOM">      1.00000000      1.00000000      1.00000000      1.00000000      1.00000000      1.00000000      1.00000000      1.00000000      1.00000000      1.00000000      1.00000000      1.00000000      1.00000000      1.00000000      1.00000000      1.00000000      1.00000000      1.00000000      1.00000000      1.00000000
      1.00000000      1.00000000      1.00000000      1.00000000      1.00000000      1.00000000      1.00000000      1.00000000      1.00000000      1.00000000      1.00000000      1.00000000      1.00000000      1.00000000      1.00000000      1.00000000      1.00000000      1.00000000      1.00000000      1.00000000
      1.00000000      1.00000000      1.00000000      1.00000000      1.00000000      1.00000000      1.00000000      1.00000000      1.00000000      1.00000000      1.00000000      1.00000000      1.00000000      1.00000000      1.00000000      1.00000000      1.00000000      1.00000000      1.00000000      1.00000000
      1.00000000</v>
    <i name="NUPDOWN">     -1.00000000</i>
    <i type="logical" name="LSORBIT"> F  </i>
    <v name="SAXIS">      0.00000000      0.00000000      1.00000000</v>
    <i type="logical" name="LSPIRAL"> F  </i>
    <v name="QSPIRAL">      0.00000000      0.00000000      0.00000000</v>
    <i type="logical" name="LZEROZ"> F  </i>
   </separator>
   <separator name="electronic exchange-correlation" >
    <i type="logical" name="LASPH"> F  </i>
    <i type="logical" name="LMETAGGA"> F  </i>
   </separator>
   <separator name="electronic convergence" >
    <i type="int" name="NELM">    60</i>
    <i type="int" name="NELMDL">    -5</i>
    <i type="int" name="NELMIN">     4</i>
    <i name="ENINI">    600.00000000</i>
    <separator name="electronic convergence detail" >
     <i type="logical" name="LDIAG"> T  </i>
     <i type="logical" name="LSUBROT"> F  </i>
     <i name="WEIMIN">      0.00100000</i>
     <i name="EBREAK">      0.00000000</i>
     <i name="DEPER">      0.30000000</i>
     <i type="int" name="NRMM">     4</i>
     <i name="TIME">      0.40000000</i>
    </separator>
   </separator>
   <separator name="electronic mixer" >
    <i name="AMIX">      0.40000000</i>
    <i name="BMIX">      1.00000000</i>
    <i name="AMIN">      0.10000000</i>
    <i name="AMIX_MAG">      1.60000000</i>
    <i name="BMIX_MAG">      1.00000000</i>
    <separator name="electronic mixer details" >
     <i type="int" name="IMIX">     4</i>
     <i type="logical" name="MIXFIRST"> F  </i>
     <i type="int" name="MAXMIX">   -45</i>
     <i name="WC">    100.00000000</i>
     <i type="int" name="INIMIX">     1</i>
     <i type="int" name="MIXPRE">     1</i>
     <i type="int" name="MREMOVE">     5</i>
    </separator>
   </separator>
   <separator name="electronic dipolcorrection" >
    <i type="logical" name="LDIPOL"> F  </i>
    <i type="logical" name="LMONO"> F  </i>
    <i type="int" name="IDIPOL">     0</i>
    <i name="EPSILON">      1.00000000</i>
    <v name="DIPOL">   -100.00000000   -100.00000000   -100.00000000</v>
    <i name="EFIELD">      0.00000000</i>
   </separator>
  </separator>
  <separator name="grids" >
   <i type="int" name="NGX">    70</i>
   <i type="int" name="NGY">    60</i>
   <i type="int" name="NGZ">    70</i>
   <i type="int" name="NGXF">   140</i>
   <i type="int" name="NGYF">   120</i>
   <i type="int" name="NGZF">   140</i>
   <i type="logical" name="ADDGRID"> F  </i>
  </separator>
  <separator name="ionic" >
   <i type="int" name="NSW">     1</i>
   <i type="int" name="IBRION">     2</i>
   <i type="int" name="MDALGO">     0</i>
   <i type="int" name="ISIF">     2</i>
   <i name="PSTRESS">      0.00000000</i>
   <i name="EDIFFG">     -0.01000000</i>
   <i type="int" name="NFREE">    10</i>
   <i name="POTIM">      0.50000000</i>
   <i name="SMASS">     -3.00000000</i>
   <i name="SCALEE">      1.00000000</i>
  </separator>
  <separator name="ionic md" >
   <i name="TEBEG">      0.00010000</i>
   <i name="TEEND">      0.00010000</i>
   <i type="int" name="NBLOCK">     1</i>
   <i type="int" name="KBLOCK">     1</i>
   <i type="int" name="NPACO">   256</i>
   <i name="APACO">     16.00000000</i>
  </separator>
  <separator name="symmetry" >
   <i type="int" name="ISYM">     2</i>
   <i name="SYMPREC">      0.00001000</i>
  </separator>
  <separator name="dos" >
   <i type="int" name="LORBIT">     0</i>
   <v name="RWIGS">     -1.00000000     -1.00000000     -1.00000000     -1.00000000     -1.00000000</v>
   <i type="int" name="NEDOS">   301</i>
   <i name="EMIN">     10.00000000</i>
   <i name="EMAX">    -10.00000000</i>
   <i name="EFERMI">      0.00000000</i>
  </separator>
  <separator name="writing" >
   <i type="int" name="NWRITE">     2</i>
   <i type="logical" name="LWAVE"> F  </i>
   <i type="logical" name="LDOWNSAMPLE"> F  </i>
   <i type="logical" name="LCHARG"> F  </i>
   <i type="logical" name="LPARD"> F  </i>
   <i type="logical" name="LVTOT"> F  </i>
   <i type="logical" name="LVHAR"> F  </i>
   <i type="logical" name="LELF"> F  </i>
   <i type="logical" name="LOPTICS"> F  </i>
   <v name="STM">      0.00000000      0.00000000      0.00000000      0.00000000      0.00000000      0.00000000      0.00000000</v>
  </separator>
  <separator name="performance" >
   <i type="int" name="NPAR">    28</i>
   <i type="int" name="NSIM">     4</i>
   <i type="int" name="NBLK">    -1</i>
   <i type="logical" name="LPLANE"> T  </i>
   <i type="logical" name="LSCALAPACK"> T  </i>
   <i type="logical" name="LSCAAWARE"> F  </i>
   <i type="logical" name="LSCALU"> F  </i>
   <i type="logical" name="LASYNC"> F  </i>
   <i type="logical" name="LORBITALREAL"> F  </i>
  </separator>
  <separator name="miscellaneous" >
   <i type="int" name="IDIOT">     3</i>
   <i type="int" name="ISPECIAL">     0</i>
   <i type="logical" name="LMUSIC"> F  </i>
   <v name="POMASS">      7.01000000     24.30500000    208.98000000     32.06600000     16.00000000</v>
   <v name="DARWINR">      0.00000000      0.00000000      0.00000000      0.00000000      0.00000000</v>
   <v name="DARWINV">      1.00000000      1.00000000      1.00000000      1.00000000      1.00000000</v>
   <i type="logical" name="LCORR"> T  </i>
  </separator>
  <i type="logical" name="GGA_COMPAT"> T  </i>
  <i type="logical" name="LBERRY"> F  </i>
  <i type="int" name="ICORELEVEL">     0</i>
  <i type="logical" name="LDAU"> F  </i>
  <i type="int" name="I_CONSTRAINED_M">     0</i>
  <separator name="electronic exchange-correlation" >
   <i type="string" name="GGA">--</i>
   <i type="int" name="VOSKOWN">     0</i>
   <i type="logical" name="LHFCALC"> F  </i>
   <i type="string" name="PRECFOCK"></i>
   <i type="logical" name="LSYMGRAD"> F  </i>
   <i type="logical" name="LHFONE"> F  </i>
   <i type="logical" name="LRHFCALC"> F  </i>
   <i type="logical" name="LTHOMAS"> F  </i>
   <i type="logical" name="LMODELHF"> F  </i>
   <i name="ENCUT4O">     -1.00000000</i>
   <i type="int" name="EXXOEP">     0</i>
   <i type="int" name="FOURORBIT">     0</i>
   <i name="AEXX">      0.00000000</i>
   <i name="HFALPHA">      0.00000000</i>
   <i name="MCALPHA">      0.00000000</i>
   <i name="ALDAX">      1.00000000</i>
   <i name="AGGAX">      1.00000000</i>
   <i name="ALDAC">      1.00000000</i>
   <i name="AGGAC">      1.00000000</i>
   <i type="int" name="NKREDX">     1</i>
   <i type="int" name="NKREDY">     1</i>
   <i type="int" name="NKREDZ">     1</i>
   <i type="logical" name="SHIFTRED"> F  </i>
   <i type="logical" name="ODDONLY"> F  </i>
   <i type="logical" name="EVENONLY"> F  </i>
   <i type="int" name="LMAXFOCK">     0</i>
   <i type="int" name="NMAXFOCKAE">     0</i>
   <i type="logical" name="LFOCKAEDFT"> F  </i>
   <i name="HFSCREEN">      0.00000000</i>
   <i name="HFSCREENC">      0.00000000</i>
   <i type="int" name="NBANDSGWLOW">     0</i>
  </separator>
  <separator name="vdW DFT" >
   <i type="logical" name="LUSE_VDW"> F  </i>
   <i name="Zab_VDW">     -0.84910000</i>
   <i name="PARAM1">      0.12340000</i>
   <i name="PARAM2">      1.00000000</i>
   <i name="PARAM3">      0.00000000</i>
  </separator>
  <separator name="model GW" >
   <i type="int" name="MODEL_GW">     0</i>
   <i name="MODEL_EPS0">     11.77228070</i>
   <i name="MODEL_ALPHA">      1.00000000</i>
  </separator>
  <separator name="linear response parameters" >
   <i type="logical" name="LEPSILON"> F  </i>
   <i type="logical" name="LRPA"> F  </i>
   <i type="logical" name="LNABLA"> F  </i>
   <i type="logical" name="LVEL"> F  </i>
   <i type="int" name="KINTER">     0</i>
   <i name="CSHIFT">      0.10000000</i>
   <i name="OMEGAMAX">     -1.00000000</i>
   <i name="DEG_THRESHOLD">      0.00200000</i>
   <i name="RTIME">     -0.10000000</i>
   <i name="WPLASMAI">      0.00000000</i>
   <v name="DFIELD">      0.00000000      0.00000000      0.00000000</v>
   <v name="WPLASMA">      0.00000000      0.00000000      0.00000000      0.00000000      0.00000000      0.00000000      0.00000000      0.00000000      0.00000000</v>
  </separator>
  <separator name="orbital magnetization" >
   <i type="logical" name="NUCIND"> F  </i>
   <v name="MAGPOS">      0.00000000      0.00000000      0.00000000</v>
   <i type="logical" name="LNICSALL"> T  </i>
   <i type="logical" name="ORBITALMAG"> F  </i>
   <i type="logical" name="LMAGBLOCH"> F  </i>
   <i type="logical" name="LCHIMAG"> F  </i>
   <i type="logical" name="LGAUGE"> T  </i>
   <i type="int" name="MAGATOM">     0</i>
   <v name="MAGDIPOL">      0.00000000      0.00000000      0.00000000</v>
   <v name="AVECCONST">      0.00000000      0.00000000      0.00000000</v>
  </separator>
  <separator name="response functions" >
   <i type="logical" name="LADDER"> F  </i>
   <i type="logical" name="LRPAFORCE"> F  </i>
   <i type="logical" name="LFXC"> F  </i>
   <i type="logical" name="LHARTREE"> T  </i>
   <i type="int" name="IBSE">     0</i>
   <v type="int" name="KPOINT">    -1     0     0     0</v>
   <i type="logical" name="LTCTE"> F  </i>
   <i type="logical" name="LTETE"> F  </i>
   <i type="logical" name="LTRIPLET"> F  </i>
   <i type="logical" name="LFXCEPS"> F  </i>
   <i type="logical" name="LFXHEG"> F  </i>
   <i type="int" name="NATURALO">     2</i>
   <i type="logical" name="L2ORDER"> F  </i>
   <i type="logical" name="LMP2LT"> F  </i>
   <i type="logical" name="LUSEW"> F  </i>
   <i name="ENCUTGW">     -2.00000000</i>
   <i name="ENCUTGWSOFT">     -2.00000000</i>
   <i name="ENCUTLF">     -1.00000000</i>
   <i type="int" name="LMAXMP2">    -1</i>
   <i name="SCISSOR">      0.00000000</i>
   <i type="int" name="NOMEGA">     0</i>
   <i type="int" name="NOMEGAR">     0</i>
   <i type="int" name="NBANDSGW">    -1</i>
   <i type="int" name="NBANDSO">    -1</i>
   <i type="int" name="NBANDSV">    -1</i>
   <i type="int" name="NELM">     1</i>
   <i type="int" name="NELMHF">     1</i>
   <i type="int" name="DIM">     3</i>
   <i type="int" name="ANTIRES">     0</i>
   <i name="OMEGAMAX">    -30.00000000</i>
   <i name="OMEGAMIN">    -30.00000000</i>
   <i name="OMEGATL">   -200.00000000</i>
   <i type="int" name="OMEGAGRID">   140</i>
   <i name="CSHIFT">     -0.10000000</i>
   <i type="logical" name="SELFENERGY"> F  </i>
   <i type="logical" name="LSPECTRAL"> F  </i>
   <i type="logical" name="LSPECTRALGW"> F  </i>
   <i type="logical" name="LSINGLES"> F  </i>
   <i type="logical" name="LFERMIGW"> F  </i>
   <i type="logical" name="ODDONLYGW"> F  </i>
   <i type="logical" name="EVENONLYGW"> F  </i>
   <i type="int" name="NKREDLFX">     1</i>
   <i type="int" name="NKREDLFY">     1</i>
   <i type="int" name="NKREDLFZ">     1</i>
   <i type="int" name="MAXMEM">  2800</i>
   <i type="int" name="TELESCOPE">     0</i>
   <i type="int" name="TAUPAR">     1</i>
   <i type="int" name="OMEGAPAR">    -1</i>
   <i name="LAMBDA">      1.00000000</i>
  </separator>
  <separator name="External order field" >
   <i name="OFIELD_KAPPA">      0.00000000</i>
   <v name="OFIELD_K">      0.00000000      0.00000000      0.00000000</v>
   <i name="OFIELD_Q6_NEAR">      0.00000000</i>
   <i name="OFIELD_Q6_FAR">      0.00000000</i>
   <i name="OFIELD_A">      0.00000000</i>
  </separator>
 </parameters>
 <atominfo>
  <atoms>      61 </atoms>
  <types>       5 </types>
  <array name="atoms" >
   <dimension dim="1">ion</dimension>
   <field type="string">element</field>
   <field type="int">atomtype</field>
   <set>
    <rc><c>Li</c><c>   1</c></rc>
    <rc><c>Li</c><c>   1</c></rc>
    <rc><c>Li</c><c>   1</c></rc>
    <rc><c>Li</c><c>   1</c></rc>
    <rc><c>Li</c><c>   1</c></rc>
    <rc><c>Li</c><c>   1</c></rc>
    <rc><c>Li</c><c>   1</c></rc>
    <rc><c>Li</c><c>   1</c></rc>
    <rc><c>Li</c><c>   1</c></rc>
    <rc><c>Li</c><c>   1</c></rc>
    <rc><c>Mg</c><c>   2</c></rc>
    <rc><c>Mg</c><c>   2</c></rc>
    <rc><c>Mg</c><c>   2</c></rc>
    <rc><c>Bi</c><c>   3</c></rc>
    <rc><c>Bi</c><c>   3</c></rc>
    <rc><c>Bi</c><c>   3</c></rc>
    <rc><c>Bi</c><c>   3</c></rc>
    <rc><c>Bi</c><c>   3</c></rc>
    <rc><c>Bi</c><c>   3</c></rc>
    <rc><c>Bi</c><c>   3</c></rc>
    <rc><c>Bi</c><c>   3</c></rc>
    <rc><c>Bi</c><c>   3</c></rc>
    <rc><c>Bi</c><c>   3</c></rc>
    <rc><c>Bi</c><c>   3</c></rc>
    <rc><c>Bi</c><c>   3</c></rc>
    <rc><c>Bi</c><c>   3</c></rc>
    <rc><c>Bi</c><c>   3</c></rc>
    <rc><c>Bi</c><c>   3</c></rc>
    <rc><c>Bi</c><c>   3</c></rc>
    <rc><c>S </c><c>   4</c></rc>
    <rc><c>S </c><c>   4</c></rc>
    <rc><c>S </c><c>   4</c></rc>
    <rc><c>S </c><c>   4</c></rc>
    <rc><c>S </c><c>   4</c></rc>
    <rc><c>S </c><c>   4</c></rc>
    <rc><c>S </c><c>   4</c></rc>
    <rc><c>S </c><c>   4</c></rc>
    <rc><c>S </c><c>   4</c></rc>
    <rc><c>S </c><c>   4</c></rc>
    <rc><c>S </c><c>   4</c></rc>
    <rc><c>S </c><c>   4</c></rc>
    <rc><c>S </c><c>   4</c></rc>
    <rc><c>S </c><c>   4</c></rc>
    <rc><c>S </c><c>   4</c></rc>
    <rc><c>S </c><c>   4</c></rc>
    <rc><c>O </c><c>   5</c></rc>
    <rc><c>O </c><c>   5</c></rc>
    <rc><c>O </c><c>   5</c></rc>
    <rc><c>O </c><c>   5</c></rc>
    <rc><c>O </c><c>   5</c></rc>
    <rc><c>O </c><c>   5</c></rc>
    <rc><c>O </c><c>   5</c></rc>
    <rc><c>O </c><c>   5</c></rc>
    <rc><c>O </c><c>   5</c></rc>
    <rc><c>O </c><c>   5</c></rc>
    <rc><c>O </c><c>   5</c></rc>
    <rc><c>O </c><c>   5</c></rc>
    <rc><c>O </c><c>   5</c></rc>
    <rc><c>O </c><c>   5</c></rc>
    <rc><c>O </c><c>   5</c></rc>
    <rc><c>O </c><c>   5</c></rc>
   </set>
  </array>
  <array name="atomtypes" >
   <dimension dim="1">type</dimension>
   <field type="int">atomspertype</field>
   <field type="string">element</field>
   <field>mass</field>
   <field>valence</field>
   <field type="string">pseudopotential</field>
   <set>
    <rc><c>  10</c><c>Li</c><c>      7.01000000</c><c>      3.00000000</c><c>  PAW_PBE Li_sv 10Sep2004               </c></rc>
    <rc><c>   3</c><c>Mg</c><c>     24.30500000</c><c>      2.00000000</c><c>  PAW_PBE Mg 13Apr2007                  </c></rc>
    <rc><c>  16</c><c>Bi</c><c>    208.98000000</c><c>     15.00000000</c><c>  PAW_PBE Bi_d 06Sep2000                </c></rc>
    <rc><c>  16</c><c>S </c><c>     32.06600000</c><c>      6.00000000</c><c>  PAW_PBE S 06Sep2000                   </c></rc>
    <rc><c>  16</c><c>O </c><c>     16.00000000</c><c>      6.00000000</c><c>  PAW_PBE O 08Apr2002                   </c></rc>
   </set>
  </array>
 </atominfo>
 <structure name="initialpos" >
  <crystal>
   <varray name="basis" >
    <v>      11.17850000       0.00000000       0.00000000 </v>
    <v>       0.00000000       9.57460000       0.00000000 </v>
    <v>       0.00000000       0.00000000      11.18240000 </v>
   </varray>
   <i name="volume">   1196.84853820 </i>
   <varray name="rec_basis" >
    <v>       0.08945744       0.00000000       0.00000000 </v>
    <v>       0.00000000       0.10444301       0.00000000 </v>
    <v>       0.00000000       0.00000000       0.08942624 </v>
   </varray>
  </crystal>
  <varray name="positions" >
   <v>       0.37539000       0.00017000       0.43687000 </v>
   <v>       0.37461000       0.00017000       0.18687000 </v>
   <v>       0.62461000       0.99984000       0.18687000 </v>
   <v>       0.87461000       0.00017000       0.18687000 </v>
   <v>       0.37539000       0.00017000       0.93687000 </v>
   <v>       0.37461000       0.00017000       0.68687000 </v>
   <v>       0.62539000       0.99984000       0.93687000 </v>
   <v>       0.87539000       0.00017000       0.93687000 </v>
   <v>       0.62461000       0.99984000       0.68687000 </v>
   <v>       0.87461000       0.00017000       0.68687000 </v>
   <v>       0.12461000       0.99984000       0.18687000 </v>
   <v>       0.87539000       0.00017000       0.43687000 </v>
   <v>       0.12461000       0.99984000       0.68687000 </v>
   <v>       0.00013000       0.29519000       0.06281000 </v>
   <v>       0.25013000       0.70481000       0.06281000 </v>
   <v>       0.24987000       0.29519000       0.31282000 </v>
   <v>       0.49987000       0.70481000       0.31282000 </v>
   <v>       0.50013000       0.29519000       0.06281000 </v>
   <v>       0.75013000       0.70481000       0.06281000 </v>
   <v>       0.74987000       0.29519000       0.31282000 </v>
   <v>       0.99987000       0.70481000       0.31282000 </v>
   <v>       0.00013000       0.29519000       0.56281000 </v>
   <v>       0.25013000       0.70481000       0.56281000 </v>
   <v>       0.24987000       0.29519000       0.81282000 </v>
   <v>       0.49987000       0.70481000       0.81282000 </v>
   <v>       0.50013000       0.29519000       0.56281000 </v>
   <v>       0.75013000       0.70481000       0.56281000 </v>
   <v>       0.74987000       0.29519000       0.81282000 </v>
   <v>       0.99987000       0.70481000       0.81282000 </v>
   <v>       0.25005000       0.32677000       0.06286000 </v>
   <v>       0.00005000       0.67323000       0.06286000 </v>
   <v>       0.49995000       0.32677000       0.31286000 </v>
   <v>       0.24995000       0.67323000       0.31286000 </v>
   <v>       0.75005000       0.32677000       0.06286000 </v>
   <v>       0.50005000       0.67323000       0.06286000 </v>
   <v>       0.99995000       0.32677000       0.31286000 </v>
   <v>       0.74995000       0.67323000       0.31286000 </v>
   <v>       0.25005000       0.32677000       0.56286000 </v>
   <v>       0.00005000       0.67323000       0.56286000 </v>
   <v>       0.49995000       0.32677000       0.81286000 </v>
   <v>       0.24995000       0.67323000       0.81286000 </v>
   <v>       0.75005000       0.32677000       0.56286000 </v>
   <v>       0.50005000       0.67323000       0.56286000 </v>
   <v>       0.99995000       0.32677000       0.81286000 </v>
   <v>       0.74995000       0.67323000       0.81286000 </v>
   <v>       0.49987000       0.07798000       0.06246000 </v>
   <v>       0.24987000       0.92202000       0.06246000 </v>
   <v>       0.25013000       0.07798000       0.31246000 </v>
   <v>       0.00013000       0.92202000       0.31246000 </v>
   <v>       0.99987000       0.07798000       0.06246000 </v>
   <v>       0.74987000       0.92202000       0.06246000 </v>
   <v>       0.75013000       0.07798000       0.31246000 </v>
   <v>       0.50013000       0.92202000       0.31246000 </v>
   <v>       0.49987000       0.07798000       0.56246000 </v>
   <v>       0.24987000       0.92202000       0.56246000 </v>
   <v>       0.25013000       0.07798000       0.81246000 </v>
   <v>       0.00013000       0.92202000       0.81246000 </v>
   <v>       0.99987000       0.07798000       0.56246000 </v>
   <v>       0.74987000       0.92202000       0.56246000 </v>
   <v>       0.75013000       0.07798000       0.81246000 </v>
   <v>       0.50013000       0.92202000       0.81246000 </v>
  </varray>
 </structure>
 <calculation>
  <scstep>
   <time name="dav">   60.33   60.37</time>
   <time name="total">   60.41   60.45</time>
   <energy>
    <i name="alphaZ">   1073.51873187 </i>
    <i name="ewald"> -30878.35468875 </i>
    <i name="hartreedc"> -12710.85532916 </i>
    <i name="XCdc">   1394.95810860 </i>
    <i name="pawpsdc">  36823.70205594 </i>
    <i name="pawaedc"> -36326.52930246 </i>
    <i name="eentropy">      0.00000000 </i>
    <i name="bandstr">   1806.89463948 </i>
    <i name="atom">  44791.06186932 </i>
    <i name="e_fr_energy">   5974.39608484 </i>
    <i name="e_wo_entrp">   5974.39608484 </i>
    <i name="e_0_energy">   5974.39608484 </i>
   </energy>
  </scstep>
  <scstep>
   <time name="dav">   60.94   60.97</time>
   <time name="total">   60.95   60.98</time>
   <energy>
    <i name="e_fr_energy">    798.58866862 </i>
    <i name="e_wo_entrp">    798.58866862 </i>
    <i name="e_0_energy">    798.58866862 </i>
   </energy>
  </scstep>
  <scstep>
   <time name="dav">   70.69   70.79</time>
   <time name="total">   70.69   70.79</time>
   <energy>
    <i name="e_fr_energy">   -246.26836393 </i>
    <i name="e_wo_entrp">   -246.26836393 </i>
    <i name="e_0_energy">   -246.26836393 </i>
   </energy>
  </scstep>
  <scstep>
   <time name="dav">   72.19   72.28</time>
   <time name="total">   72.19   72.28</time>
   <energy>
    <i name="e_fr_energy">   -346.55469140 </i>
    <i name="e_wo_entrp">   -346.55469140 </i>
    <i name="e_0_energy">   -346.55469140 </i>
   </energy>
  </scstep>
  <scstep>
   <time name="dav">   96.55   96.75</time>
   <time name="total">   97.29   97.49</time>
   <energy>
    <i name="e_fr_energy">   -355.55403587 </i>
    <i name="e_wo_entrp">   -355.55403587 </i>
    <i name="e_0_energy">   -355.55403587 </i>
   </energy>
  </scstep>
  <scstep>
   <time name="dav">   85.54   85.63</time>
   <time name="total">   86.33   86.44</time>
   <energy>
    <i name="e_fr_energy">   -296.79151881 </i>
    <i name="e_wo_entrp">   -296.79151881 </i>
    <i name="e_0_energy">   -296.79151881 </i>
   </energy>
  </scstep>
  <scstep>
   <time name="dav">   64.88   64.97</time>
   <time name="total">   65.69   65.78</time>
   <energy>
    <i name="e_fr_energy">   -299.55139650 </i>
    <i name="e_wo_entrp">   -299.55139650 </i>
    <i name="e_0_energy">   -299.55139650 </i>
   </energy>
  </scstep>
  <scstep>
   <time name="dav">   80.99   81.01</time>
   <time name="total">   81.79   81.81</time>
   <energy>
    <i name="e_fr_energy">   -298.28298933 </i>
    <i name="e_wo_entrp">   -298.28298933 </i>
    <i name="e_0_energy">   -298.28298933 </i>
   </energy>
  </scstep>
  <scstep>
   <time name="dav">   83.29   83.32</time>
   <time name="total">   84.09   84.12</time>
   <energy>
    <i name="e_fr_energy">   -297.62129351 </i>
    <i name="e_wo_entrp">   -297.62129351 </i>
    <i name="e_0_energy">   -297.62129351 </i>
   </energy>
  </scstep>
  <scstep>
   <time name="dav">   71.67   71.69</time>
   <time name="total">   72.47   72.49</time>
   <energy>
    <i name="e_fr_energy">   -297.63152974 </i>
    <i name="e_wo_entrp">   -297.63152974 </i>
    <i name="e_0_energy">   -297.63152974 </i>
   </energy>
  </scstep>
  <scstep>
   <time name="dav">   80.38   80.40</time>
   <time name="total">   81.18   81.20</time>
   <energy>
    <i name="e_fr_energy">   -297.64220822 </i>
    <i name="e_wo_entrp">   -297.64220822 </i>
    <i name="e_0_energy">   -297.64220822 </i>
   </energy>
  </scstep>
  <scstep>
   <time name="dav">   80.26   80.38</time>
   <time name="total">   81.06   81.18</time>
   <energy>
    <i name="e_fr_energy">   -297.64583589 </i>
    <i name="e_wo_entrp">   -297.64583589 </i>
    <i name="e_0_energy">   -297.64583589 </i>
   </energy>
  </scstep>
  <scstep>
   <time name="dav">   77.97   78.05</time>
   <time name="total">   78.77   78.85</time>
   <energy>
    <i name="e_fr_energy">   -297.64680810 </i>
    <i name="e_wo_entrp">   -297.64680810 </i>
    <i name="e_0_energy">   -297.64680810 </i>
   </energy>
  </scstep>
  <scstep>
   <time name="dav">   74.03   74.21</time>
   <time name="total">   74.83   75.02</time>
   <energy>
    <i name="e_fr_energy">   -297.64702064 </i>
    <i name="e_wo_entrp">   -297.64702064 </i>
    <i name="e_0_energy">   -297.64702064 </i>
   </energy>
  </scstep>
  <scstep>
   <time name="dav">   83.98   84.11</time>
   <time name="total">   84.78   84.92</time>
   <energy>
    <i name="e_fr_energy">   -297.64707564 </i>
    <i name="e_wo_entrp">   -297.64707564 </i>
    <i name="e_0_energy">   -297.64707564 </i>
   </energy>
  </scstep>
  <scstep>
   <time name="dav">   64.82   64.91</time>
   <time name="total">   65.62   65.72</time>
   <energy>
    <i name="e_fr_energy">   -297.64709131 </i>
    <i name="e_wo_entrp">   -297.64709131 </i>
    <i name="e_0_energy">   -297.64709131 </i>
   </energy>
  </scstep>
  <scstep>
   <time name="dav">   65.42   65.54</time>
   <time name="total">   66.21   66.35</time>
   <energy>
    <i name="e_fr_energy">   -297.64709317 </i>
    <i name="e_wo_entrp">   -297.64709317 </i>
    <i name="e_0_energy">   -297.64709317 </i>
   </energy>
  </scstep>
  <scstep>
   <time name="dav">   59.33   59.48</time>
   <time name="total">   59.40   59.56</time>
   <energy>
    <i name="alphaZ">   1073.51873187 </i>
    <i name="ewald"> -30878.35468875 </i>
    <i name="hartreedc"> -12950.60867910 </i>
    <i name="XCdc">   1418.58922760 </i>
    <i name="pawpsdc">  43851.23772078 </i>
    <i name="pawaedc"> -43328.70394835 </i>
    <i name="eentropy">      0.00000000 </i>
    <i name="bandstr">  -4274.38732709 </i>
    <i name="atom">  44791.06186932 </i>
    <i name="e_fr_energy">   -297.64709373 </i>
    <i name="e_wo_entrp">   -297.64709373 </i>
    <i name="e_0_energy">   -297.64709373 </i>
   </energy>
  </scstep>
  <structure>
   <crystal>
    <varray name="basis" >
     <v>      11.17850000       0.00000000       0.00000000 </v>
     <v>       0.00000000       9.57460000       0.00000000 </v>
     <v>       0.00000000       0.00000000      11.18240000 </v>
    </varray>
    <i name="volume">   1196.84853820 </i>
    <varray name="rec_basis" >
     <v>       0.08945744       0.00000000       0.00000000 </v>
     <v>       0.00000000       0.10444301       0.00000000 </v>
     <v>       0.00000000       0.00000000       0.08942624 </v>
    </varray>
   </crystal>
   <varray name="positions" >
    <v>       0.37539000       0.00017000       0.43687000 </v>
    <v>       0.37461000       0.00017000       0.18687000 </v>
    <v>       0.62461000       0.99984000       0.18687000 </v>
    <v>       0.87461000       0.00017000       0.18687000 </v>
    <v>       0.37539000       0.00017000       0.93687000 </v>
    <v>       0.37461000       0.00017000       0.68687000 </v>
    <v>       0.62539000       0.99984000       0.93687000 </v>
    <v>       0.87539000       0.00017000       0.93687000 </v>
    <v>       0.62461000       0.99984000       0.68687000 </v>
    <v>       0.87461000       0.00017000       0.68687000 </v>
    <v>       0.12461000       0.99984000       0.18687000 </v>
    <v>       0.87539000       0.00017000       0.43687000 </v>
    <v>       0.12461000       0.99984000       0.68687000 </v>
    <v>       0.00013000       0.29519000       0.06281000 </v>
    <v>       0.25013000       0.70481000       0.06281000 </v>
    <v>       0.24987000       0.29519000       0.31282000 </v>
    <v>       0.49987000       0.70481000       0.31282000 </v>
    <v>       0.50013000       0.29519000       0.06281000 </v>
    <v>       0.75013000       0.70481000       0.06281000 </v>
    <v>       0.74987000       0.29519000       0.31282000 </v>
    <v>       0.99987000       0.70481000       0.31282000 </v>
    <v>       0.00013000       0.29519000       0.56281000 </v>
    <v>       0.25013000       0.70481000       0.56281000 </v>
    <v>       0.24987000       0.29519000       0.81282000 </v>
    <v>       0.49987000       0.70481000       0.81282000 </v>
    <v>       0.50013000       0.29519000       0.56281000 </v>
    <v>       0.75013000       0.70481000       0.56281000 </v>
    <v>       0.74987000       0.29519000       0.81282000 </v>
    <v>       0.99987000       0.70481000       0.81282000 </v>
    <v>       0.25005000       0.32677000       0.06286000 </v>
    <v>       0.00005000       0.67323000       0.06286000 </v>
    <v>       0.49995000       0.32677000       0.31286000 </v>
    <v>       0.24995000       0.67323000       0.31286000 </v>
    <v>       0.75005000       0.32677000       0.06286000 </v>
    <v>       0.50005000       0.67323000       0.06286000 </v>
    <v>       0.99995000       0.32677000       0.31286000 </v>
    <v>       0.74995000       0.67323000       0.31286000 </v>
    <v>       0.25005000       0.32677000       0.56286000 </v>
    <v>       0.00005000       0.67323000       0.56286000 </v>
    <v>       0.49995000       0.32677000       0.81286000 </v>
    <v>       0.24995000       0.67323000       0.81286000 </v>
    <v>       0.75005000       0.32677000       0.56286000 </v>
    <v>       0.50005000       0.67323000       0.56286000 </v>
    <v>       0.99995000       0.32677000       0.81286000 </v>
    <v>       0.74995000       0.67323000       0.81286000 </v>
    <v>       0.49987000       0.07798000       0.06246000 </v>
    <v>       0.24987000       0.92202000       0.06246000 </v>
    <v>       0.25013000       0.07798000       0.31246000 </v>
    <v>       0.00013000       0.92202000       0.31246000 </v>
    <v>       0.99987000       0.07798000       0.06246000 </v>
    <v>       0.74987000       0.92202000       0.06246000 </v>
    <v>       0.75013000       0.07798000       0.31246000 </v>
    <v>       0.50013000       0.92202000       0.31246000 </v>
    <v>       0.49987000       0.07798000       0.56246000 </v>
    <v>       0.24987000       0.92202000       0.56246000 </v>
    <v>       0.25013000       0.07798000       0.81246000 </v>
    <v>       0.00013000       0.92202000       0.81246000 </v>
    <v>       0.99987000       0.07798000       0.56246000 </v>
    <v>       0.74987000       0.92202000       0.56246000 </v>
    <v>       0.75013000       0.07798000       0.81246000 </v>
    <v>       0.50013000       0.92202000       0.81246000 </v>
   </varray>
  </structure>
  <varray name="forces" >
   <v>       0.18972071      -0.00164658       0.00377600 </v>
   <v>       0.34732510      -0.06102706       0.16128689 </v>
   <v>      -0.11149437      -0.06626037       0.41858451 </v>
   <v>      -0.34847404       0.05954604      -0.30498331 </v>
   <v>      -0.31205504      -0.00047412       0.00402063 </v>
   <v>       0.34689156       0.06068601      -0.14533110 </v>
   <v>      -0.05162975       0.00009164       0.00533114 </v>
   <v>       0.29903681      -0.00152152       0.00384679 </v>
   <v>      -0.11102709       0.06600962      -0.40695297 </v>
   <v>      -0.34849999      -0.06252587       0.32073741 </v>
   <v>       0.28840575       0.12168194      -0.15747217 </v>
   <v>      -0.45276368      -0.00709209       0.02851608 </v>
   <v>       0.28797300      -0.11480968       0.22272111 </v>
   <v>       0.01951777       0.02682640      -0.24653238 </v>
   <v>       0.13010679       0.01848176      -0.18144433 </v>
   <v>       0.23765325      -0.01843343       0.17333540 </v>
   <v>       0.10984135       1.02318182       0.13294984 </v>
   <v>       0.00259583      -0.00010689       0.04567967 </v>
   <v>      -0.17591088      -0.01921076      -0.01580280 </v>
   <v>      -0.45638947       0.00245312       0.01903803 </v>
   <v>       0.13366016      -0.98844243       0.04899891 </v>
   <v>       0.11697669       0.99860380      -0.05570732 </v>
   <v>       0.22903886       0.00036087      -0.18338192 </v>
   <v>       0.13594119      -0.03663665       0.17252758 </v>
   <v>       0.01491787      -0.00099710      -0.05332489 </v>
   <v>       0.09362988      -1.01226556      -0.14367505 </v>
   <v>      -0.46240133       0.00191988      -0.02780917 </v>
   <v>      -0.16201905       0.01960434       0.00732350 </v>
   <v>       0.03559266      -0.00770833       0.23505843 </v>
   <v>      -0.10595732       0.13899874       0.05649827 </v>
   <v>       0.02277979      -0.09326795       0.13817449 </v>
   <v>      -0.00664851       0.20040490      -0.11576355 </v>
   <v>      -0.28229397      -0.14730470      -0.06169923 </v>
   <v>       0.06878273       0.18902013      -0.00887690 </v>
   <v>       0.01264497      -0.22664638      -0.11144066 </v>
   <v>      -0.01807078       0.06819124       0.06150900 </v>
   <v>       0.30723926      -0.11905397       0.03115681 </v>
   <v>      -0.28435551       0.14471610       0.06045394 </v>
   <v>      -0.01473143      -0.06873723      -0.06117134 </v>
   <v>       0.01601942       0.22610935       0.10887912 </v>
   <v>      -0.10136075      -0.14091658      -0.05767652 </v>
   <v>       0.30480060       0.11855416      -0.03257605 </v>
   <v>      -0.01031123      -0.19963662       0.11601062 </v>
   <v>       0.02062161       0.09560670      -0.13720791 </v>
   <v>       0.06841627      -0.18990155       0.00899509 </v>
   <v>       0.01044884       0.03500574      -0.07502357 </v>
   <v>       0.05422990      -0.05339222       1.10183870 </v>
   <v>      -0.09575112       0.05152398      -1.13598306 </v>
   <v>      -0.63754880       0.68007193      -0.56181734 </v>
   <v>      -0.14137193      -0.03262128       1.18171482 </v>
   <v>       0.09108429       0.02106185      -0.00100302 </v>
   <v>       1.31194867      -0.00255766      -0.11121728 </v>
   <v>      -0.60807734      -0.84155840      -0.66550702 </v>
   <v>      -0.59612615       0.83733992       0.66808033 </v>
   <v>      -0.07447367      -0.04897775       1.12058806 </v>
   <v>       0.03473840       0.05509734      -1.11689872 </v>
   <v>      -0.14866374       0.02899790      -1.19026147 </v>
   <v>      -0.63560900      -0.68289631       0.54300794 </v>
   <v>       1.33250033       0.01033856       0.09624499 </v>
   <v>       0.07826595      -0.01964489      -0.00172773 </v>
   <v>       0.00066968      -0.03421387       0.07138468 </v>
  </varray>
  <varray name="stress" >
   <v>      -8.19624452      -0.17939162      -0.03280430 </v>
   <v>      -0.17939181     -14.25182056       0.02048928 </v>
   <v>      -0.03280405       0.02048924     -11.39381185 </v>
  </varray>
  <energy>
   <i name="e_fr_energy">   -312.22480306 </i>
   <i name="e_wo_entrp">   -312.22480306 </i>
   <i name="e_0_energy">      0.00000000 </i>
  </energy>
  <time name="totalsc"> 1450.91 1452.78</time>
  <eigenvalues>
   <array>
    <dimension dim="1">band</dimension>
    <dimension dim="2">kpoint</dimension>
    <dimension dim="3">spin</dimension>
    <field>eigene</field>
    <field>occ</field>
    <set>
     <set comment="spin 1">
      <set comment="kpoint 1">
       <r>  -40.0942    1.0000 </r>
       <r>  -40.0941    1.0000 </r>
       <r>  -39.8110    1.0000 </r>
       <r>  -39.7564    1.0000 </r>
       <r>  -39.7107    1.0000 </r>
       <r>  -39.6336    1.0000 </r>
       <r>  -39.6331    1.0000 </r>
       <r>  -39.5616    1.0000 </r>
       <r>  -39.5609    1.0000 </r>
       <r>  -39.3557    1.0000 </r>
       <r>  -18.9185    1.0000 </r>
       <r>  -18.9144    1.0000 </r>
       <r>  -18.8486    1.0000 </r>
       <r>  -18.8454    1.0000 </r>
       <r>  -18.8414    1.0000 </r>
       <r>  -18.8382    1.0000 </r>
       <r>  -18.7489    1.0000 </r>
       <r>  -18.7451    1.0000 </r>
       <r>  -18.7269    1.0000 </r>
       <r>  -18.7231    1.0000 </r>
       <r>  -18.7158    1.0000 </r>
       <r>  -18.7116    1.0000 </r>
       <r>  -18.7060    1.0000 </r>
       <r>  -18.7018    1.0000 </r>
       <r>  -18.7001    1.0000 </r>
       <r>  -18.6950    1.0000 </r>
       <r>  -18.6457    1.0000 </r>
       <r>  -18.6449    1.0000 </r>
       <r>  -18.6399    1.0000 </r>
       <r>  -18.6397    1.0000 </r>
       <r>  -18.6376    1.0000 </r>
       <r>  -18.6372    1.0000 </r>
       <r>  -18.6361    1.0000 </r>
       <r>  -18.6345    1.0000 </r>
       <r>  -18.6326    1.0000 </r>
       <r>  -18.6304    1.0000 </r>
       <r>  -18.6298    1.0000 </r>
       <r>  -18.6296    1.0000 </r>
       <r>  -18.6290    1.0000 </r>
       <r>  -18.6283    1.0000 </r>
       <r>  -18.6267    1.0000 </r>
       <r>  -18.6255    1.0000 </r>
       <r>  -18.6242    1.0000 </r>
       <r>  -18.6233    1.0000 </r>
       <r>  -18.6204    1.0000 </r>
       <r>  -18.6198    1.0000 </r>
       <r>  -18.6190    1.0000 </r>
       <r>  -18.6169    1.0000 </r>
       <r>  -18.6153    1.0000 </r>
       <r>  -18.6133    1.0000 </r>
       <r>  -18.5610    1.0000 </r>
       <r>  -18.5605    1.0000 </r>
       <r>  -18.5596    1.0000 </r>
       <r>  -18.5554    1.0000 </r>
       <r>  -18.5475    1.0000 </r>
       <r>  -18.5463    1.0000 </r>
       <r>  -18.5432    1.0000 </r>
       <r>  -18.5380    1.0000 </r>
       <r>  -18.5346    1.0000 </r>
       <r>  -18.5335    1.0000 </r>
       <r>  -18.4910    1.0000 </r>
       <r>  -18.4896    1.0000 </r>
       <r>  -18.4793    1.0000 </r>
       <r>  -18.4788    1.0000 </r>
       <r>  -18.4760    1.0000 </r>
       <r>  -18.4757    1.0000 </r>
       <r>  -18.4755    1.0000 </r>
       <r>  -18.4751    1.0000 </r>
       <r>  -18.4749    1.0000 </r>
       <r>  -18.4744    1.0000 </r>
       <r>  -18.4742    1.0000 </r>
       <r>  -18.4737    1.0000 </r>
       <r>  -18.4651    1.0000 </r>
       <r>  -18.4643    1.0000 </r>
       <r>  -18.4615    1.0000 </r>
       <r>  -18.4605    1.0000 </r>
       <r>  -18.3990    1.0000 </r>
       <r>  -18.3977    1.0000 </r>
       <r>  -18.3914    1.0000 </r>
       <r>  -18.3881    1.0000 </r>
       <r>  -18.3875    1.0000 </r>
       <r>  -18.3863    1.0000 </r>
       <r>  -18.3784    1.0000 </r>
       <r>  -18.3746    1.0000 </r>
       <r>  -18.2999    1.0000 </r>
       <r>  -18.2954    1.0000 </r>
       <r>  -18.1848    1.0000 </r>
       <r>  -18.1804    1.0000 </r>
       <r>  -18.1711    1.0000 </r>
       <r>  -18.1667    1.0000 </r>
       <r>  -13.5561    1.0000 </r>
       <r>  -13.4581    1.0000 </r>
       <r>  -12.8901    1.0000 </r>
       <r>  -12.7997    1.0000 </r>
       <r>  -12.7850    1.0000 </r>
       <r>  -12.7490    1.0000 </r>
       <r>  -12.6988    1.0000 </r>
       <r>  -12.6924    1.0000 </r>
       <r>  -12.6848    1.0000 </r>
       <r>  -12.6667    1.0000 </r>
       <r>  -12.6292    1.0000 </r>
       <r>  -12.6129    1.0000 </r>
       <r>  -12.5626    1.0000 </r>
       <r>  -12.5217    1.0000 </r>
       <r>  -11.9584    1.0000 </r>
       <r>  -11.9048    1.0000 </r>
       <r>   -9.3180    1.0000 </r>
       <r>   -9.0235    1.0000 </r>
       <r>   -8.5197    1.0000 </r>
       <r>   -8.4965    1.0000 </r>
       <r>   -8.4762    1.0000 </r>
       <r>   -8.4342    1.0000 </r>
       <r>   -8.2980    1.0000 </r>
       <r>   -8.2755    1.0000 </r>
       <r>   -8.2497    1.0000 </r>
       <r>   -8.2106    1.0000 </r>
       <r>   -8.0198    1.0000 </r>
       <r>   -8.0175    1.0000 </r>
       <r>   -7.9838    1.0000 </r>
       <r>   -7.9828    1.0000 </r>
       <r>   -7.3477    1.0000 </r>
       <r>   -7.3467    1.0000 </r>
       <r>   -6.3621    1.0000 </r>
       <r>   -6.3582    1.0000 </r>
       <r>   -6.3323    1.0000 </r>
       <r>   -6.3307    1.0000 </r>
       <r>   -5.5179    1.0000 </r>
       <r>   -5.4839    1.0000 </r>
       <r>   -5.3525    1.0000 </r>
       <r>   -5.3317    1.0000 </r>
       <r>   -5.3233    1.0000 </r>
       <r>   -5.2429    1.0000 </r>
       <r>   -5.1982    1.0000 </r>
       <r>   -5.1629    1.0000 </r>
       <r>   -5.1122    1.0000 </r>
       <r>   -5.0508    1.0000 </r>
       <r>   -3.7972    1.0000 </r>
       <r>   -3.6432    1.0000 </r>
       <r>   -1.4522    1.0000 </r>
       <r>   -1.2969    1.0000 </r>
       <r>   -1.0979    1.0000 </r>
       <r>   -0.9885    1.0000 </r>
       <r>   -0.5387    1.0000 </r>
       <r>   -0.5218    1.0000 </r>
       <r>   -0.4841    1.0000 </r>
       <r>   -0.4385    1.0000 </r>
       <r>   -0.1768    1.0000 </r>
       <r>   -0.1743    1.0000 </r>
       <r>   -0.1439    1.0000 </r>
       <r>   -0.1248    1.0000 </r>
       <r>    0.1015    1.0000 </r>
       <r>    0.1099    1.0000 </r>
       <r>    0.2515    1.0000 </r>
       <r>    0.3990    1.0000 </r>
       <r>    0.5085    1.0000 </r>
       <r>    0.6290    1.0000 </r>
       <r>    0.6310    1.0000 </r>
       <r>    0.6988    1.0000 </r>
       <r>    0.7145    1.0000 </r>
       <r>    0.7492    1.0000 </r>
       <r>    0.7685    1.0000 </r>
       <r>    0.7718    1.0000 </r>
       <r>    0.8273    1.0000 </r>
       <r>    0.8795    1.0000 </r>
       <r>    0.9316    1.0000 </r>
       <r>    0.9925    1.0000 </r>
       <r>    0.9945    1.0000 </r>
       <r>    1.0139    1.0000 </r>
       <r>    1.0351    1.0000 </r>
       <r>    1.0867    1.0000 </r>
       <r>    1.2108    1.0000 </r>
       <r>    1.2520    1.0000 </r>
       <r>    1.3037    1.0000 </r>
       <r>    1.3224    1.0000 </r>
       <r>    1.4103    1.0000 </r>
       <r>    1.4271    1.0000 </r>
       <r>    1.4504    1.0000 </r>
       <r>    1.4885    1.0000 </r>
       <r>    1.5093    1.0000 </r>
       <r>    1.5300    1.0000 </r>
       <r>    1.6224    1.0000 </r>
       <r>    1.6812    1.0000 </r>
       <r>    1.6820    1.0000 </r>
       <r>    1.7617    1.0000 </r>
       <r>    1.7866    1.0000 </r>
       <r>    1.8296    1.0000 </r>
       <r>    1.8314    1.0000 </r>
       <r>    1.9084    1.0000 </r>
       <r>    1.9215    1.0000 </r>
       <r>    1.9906    1.0000 </r>
       <r>    2.1100    1.0000 </r>
       <r>    2.1892    1.0000 </r>
       <r>    2.2024    1.0000 </r>
       <r>    2.2515    1.0000 </r>
       <r>    2.3270    1.0000 </r>
       <r>    2.3958    1.0000 </r>
       <r>    2.5675    1.0000 </r>
       <r>    2.5785    1.0000 </r>
       <r>    2.5807    1.0000 </r>
       <r>    2.5980    1.0000 </r>
       <r>    2.6072    1.0000 </r>
       <r>    2.6202    1.0000 </r>
       <r>    2.6373    1.0000 </r>
       <r>    2.6740    1.0000 </r>
       <r>    2.7003    1.0000 </r>
       <r>    2.7217    1.0000 </r>
       <r>    2.7444    1.0000 </r>
       <r>    2.7838    1.0000 </r>
       <r>    2.8123    1.0000 </r>
       <r>    2.8190    1.0000 </r>
       <r>    2.8565    1.0000 </r>
       <r>    2.9153    1.0000 </r>
       <r>    2.9245    1.0000 </r>
       <r>    2.9538    1.0000 </r>
       <r>    2.9582    1.0000 </r>
       <r>    2.9906    1.0000 </r>
       <r>    3.0440    1.0000 </r>
       <r>    3.1050    1.0000 </r>
       <r>    3.1101    1.0000 </r>
       <r>    3.1663    1.0000 </r>
       <r>    3.1670    1.0000 </r>
       <r>    3.1757    1.0000 </r>
       <r>    3.1872    1.0000 </r>
       <r>    3.2443    1.0000 </r>
       <r>    3.3003    1.0000 </r>
       <r>    3.3329    1.0000 </r>
       <r>    3.4099    1.0000 </r>
       <r>    3.4360    1.0000 </r>
       <r>    3.4612    1.0000 </r>
       <r>    3.5860    1.0000 </r>
       <r>    4.1966    1.0000 </r>
       <r>    4.2004    1.0000 </r>
       <r>    4.2322    1.0000 </r>
       <r>    4.2403    1.0000 </r>
       <r>    5.0596    0.0000 </r>
       <r>    5.0622    0.0000 </r>
       <r>    5.1668    0.0000 </r>
       <r>    5.1908    0.0000 </r>
       <r>    5.7479    0.0000 </r>
       <r>    5.7550    0.0000 </r>
       <r>    5.8279    0.0000 </r>
       <r>    5.8326    0.0000 </r>
       <r>    6.1045    0.0000 </r>
       <r>    6.1259    0.0000 </r>
       <r>    6.1462    0.0000 </r>
       <r>    6.1505    0.0000 </r>
       <r>    6.2421    0.0000 </r>
       <r>    6.2533    0.0000 </r>
       <r>    6.2735    0.0000 </r>
       <r>    6.2777    0.0000 </r>
       <r>    7.1015    0.0000 </r>
       <r>    7.1308    0.0000 </r>
       <r>    7.3313    0.0000 </r>
       <r>    7.3413    0.0000 </r>
       <r>    7.8149    0.0000 </r>
       <r>    7.8479    0.0000 </r>
       <r>    7.9317    0.0000 </r>
       <r>    7.9631    0.0000 </r>
       <r>    7.9863    0.0000 </r>
       <r>    8.0458    0.0000 </r>
       <r>    8.1414    0.0000 </r>
       <r>    8.2047    0.0000 </r>
       <r>    8.4029    0.0000 </r>
       <r>    8.6437    0.0000 </r>
       <r>    8.6798    0.0000 </r>
       <r>    8.7892    0.0000 </r>
       <r>    8.7970    0.0000 </r>
       <r>    8.8679    0.0000 </r>
       <r>    8.9482    0.0000 </r>
       <r>    8.9891    0.0000 </r>
       <r>    9.0204    0.0000 </r>
       <r>    9.0754    0.0000 </r>
       <r>    9.1212    0.0000 </r>
       <r>    9.1227    0.0000 </r>
       <r>    9.1425    0.0000 </r>
       <r>    9.1837    0.0000 </r>
       <r>    9.2156    0.0000 </r>
       <r>    9.2520    0.0000 </r>
       <r>    9.4346    0.0000 </r>
       <r>    9.5247    0.0000 </r>
      </set>
      <set comment="kpoint 2">
       <r>  -40.0942    1.0000 </r>
       <r>  -40.0941    1.0000 </r>
       <r>  -39.8110    1.0000 </r>
       <r>  -39.7564    1.0000 </r>
       <r>  -39.7107    1.0000 </r>
       <r>  -39.6336    1.0000 </r>
       <r>  -39.6331    1.0000 </r>
       <r>  -39.5616    1.0000 </r>
       <r>  -39.5609    1.0000 </r>
       <r>  -39.3557    1.0000 </r>
       <r>  -18.9185    1.0000 </r>
       <r>  -18.9144    1.0000 </r>
       <r>  -18.8486    1.0000 </r>
       <r>  -18.8453    1.0000 </r>
       <r>  -18.8414    1.0000 </r>
       <r>  -18.8382    1.0000 </r>
       <r>  -18.7489    1.0000 </r>
       <r>  -18.7451    1.0000 </r>
       <r>  -18.7269    1.0000 </r>
       <r>  -18.7231    1.0000 </r>
       <r>  -18.7156    1.0000 </r>
       <r>  -18.7114    1.0000 </r>
       <r>  -18.7059    1.0000 </r>
       <r>  -18.7017    1.0000 </r>
       <r>  -18.7000    1.0000 </r>
       <r>  -18.6949    1.0000 </r>
       <r>  -18.6464    1.0000 </r>
       <r>  -18.6459    1.0000 </r>
       <r>  -18.6395    1.0000 </r>
       <r>  -18.6395    1.0000 </r>
       <r>  -18.6380    1.0000 </r>
       <r>  -18.6372    1.0000 </r>
       <r>  -18.6354    1.0000 </r>
       <r>  -18.6336    1.0000 </r>
       <r>  -18.6332    1.0000 </r>
       <r>  -18.6312    1.0000 </r>
       <r>  -18.6308    1.0000 </r>
       <r>  -18.6307    1.0000 </r>
       <r>  -18.6298    1.0000 </r>
       <r>  -18.6287    1.0000 </r>
       <r>  -18.6264    1.0000 </r>
       <r>  -18.6239    1.0000 </r>
       <r>  -18.6237    1.0000 </r>
       <r>  -18.6217    1.0000 </r>
       <r>  -18.6208    1.0000 </r>
       <r>  -18.6202    1.0000 </r>
       <r>  -18.6186    1.0000 </r>
       <r>  -18.6167    1.0000 </r>
       <r>  -18.6152    1.0000 </r>
       <r>  -18.6133    1.0000 </r>
       <r>  -18.5610    1.0000 </r>
       <r>  -18.5605    1.0000 </r>
       <r>  -18.5596    1.0000 </r>
       <r>  -18.5554    1.0000 </r>
       <r>  -18.5476    1.0000 </r>
       <r>  -18.5464    1.0000 </r>
       <r>  -18.5432    1.0000 </r>
       <r>  -18.5380    1.0000 </r>
       <r>  -18.5346    1.0000 </r>
       <r>  -18.5335    1.0000 </r>
       <r>  -18.4910    1.0000 </r>
       <r>  -18.4896    1.0000 </r>
       <r>  -18.4793    1.0000 </r>
       <r>  -18.4788    1.0000 </r>
       <r>  -18.4760    1.0000 </r>
       <r>  -18.4757    1.0000 </r>
       <r>  -18.4754    1.0000 </r>
       <r>  -18.4752    1.0000 </r>
       <r>  -18.4749    1.0000 </r>
       <r>  -18.4744    1.0000 </r>
       <r>  -18.4742    1.0000 </r>
       <r>  -18.4737    1.0000 </r>
       <r>  -18.4651    1.0000 </r>
       <r>  -18.4643    1.0000 </r>
       <r>  -18.4615    1.0000 </r>
       <r>  -18.4605    1.0000 </r>
       <r>  -18.3990    1.0000 </r>
       <r>  -18.3977    1.0000 </r>
       <r>  -18.3914    1.0000 </r>
       <r>  -18.3881    1.0000 </r>
       <r>  -18.3875    1.0000 </r>
       <r>  -18.3862    1.0000 </r>
       <r>  -18.3784    1.0000 </r>
       <r>  -18.3746    1.0000 </r>
       <r>  -18.2999    1.0000 </r>
       <r>  -18.2954    1.0000 </r>
       <r>  -18.1848    1.0000 </r>
       <r>  -18.1804    1.0000 </r>
       <r>  -18.1711    1.0000 </r>
       <r>  -18.1667    1.0000 </r>
       <r>  -13.5559    1.0000 </r>
       <r>  -13.4581    1.0000 </r>
       <r>  -12.8831    1.0000 </r>
       <r>  -12.8034    1.0000 </r>
       <r>  -12.7971    1.0000 </r>
       <r>  -12.7428    1.0000 </r>
       <r>  -12.7088    1.0000 </r>
       <r>  -12.6887    1.0000 </r>
       <r>  -12.6830    1.0000 </r>
       <r>  -12.6583    1.0000 </r>
       <r>  -12.6238    1.0000 </r>
       <r>  -12.6181    1.0000 </r>
       <r>  -12.5647    1.0000 </r>
       <r>  -12.5214    1.0000 </r>
       <r>  -11.9584    1.0000 </r>
       <r>  -11.9048    1.0000 </r>
       <r>   -9.1759    1.0000 </r>
       <r>   -9.0135    1.0000 </r>
       <r>   -8.9006    1.0000 </r>
       <r>   -8.7360    1.0000 </r>
       <r>   -8.3940    1.0000 </r>
       <r>   -8.3843    1.0000 </r>
       <r>   -8.2522    1.0000 </r>
       <r>   -8.2475    1.0000 </r>
       <r>   -8.1911    1.0000 </r>
       <r>   -8.1824    1.0000 </r>
       <r>   -8.0495    1.0000 </r>
       <r>   -8.0465    1.0000 </r>
       <r>   -7.7430    1.0000 </r>
       <r>   -7.6306    1.0000 </r>
       <r>   -7.6247    1.0000 </r>
       <r>   -7.5118    1.0000 </r>
       <r>   -6.0144    1.0000 </r>
       <r>   -6.0015    1.0000 </r>
       <r>   -5.8324    1.0000 </r>
       <r>   -5.8238    1.0000 </r>
       <r>   -5.7936    1.0000 </r>
       <r>   -5.7886    1.0000 </r>
       <r>   -5.7286    1.0000 </r>
       <r>   -5.6531    1.0000 </r>
       <r>   -5.6455    1.0000 </r>
       <r>   -5.6377    1.0000 </r>
       <r>   -5.5229    1.0000 </r>
       <r>   -5.4498    1.0000 </r>
       <r>   -4.5000    1.0000 </r>
       <r>   -4.3403    1.0000 </r>
       <r>   -4.3334    1.0000 </r>
       <r>   -4.1584    1.0000 </r>
       <r>   -1.2547    1.0000 </r>
       <r>   -1.0161    1.0000 </r>
       <r>   -0.8915    1.0000 </r>
       <r>   -0.7085    1.0000 </r>
       <r>   -0.4537    1.0000 </r>
       <r>   -0.2145    1.0000 </r>
       <r>   -0.1160    1.0000 </r>
       <r>    0.0108    1.0000 </r>
       <r>    0.0785    1.0000 </r>
       <r>    0.1177    1.0000 </r>
       <r>    0.1347    1.0000 </r>
       <r>    0.2170    1.0000 </r>
       <r>    0.2203    1.0000 </r>
       <r>    0.3277    1.0000 </r>
       <r>    0.3760    1.0000 </r>
       <r>    0.4342    1.0000 </r>
       <r>    0.4430    1.0000 </r>
       <r>    0.5100    1.0000 </r>
       <r>    0.5185    1.0000 </r>
       <r>    0.5923    1.0000 </r>
       <r>    0.6022    1.0000 </r>
       <r>    0.6203    1.0000 </r>
       <r>    0.6540    1.0000 </r>
       <r>    0.7224    1.0000 </r>
       <r>    0.7370    1.0000 </r>
       <r>    0.7913    1.0000 </r>
       <r>    1.0171    1.0000 </r>
       <r>    1.0215    1.0000 </r>
       <r>    1.0251    1.0000 </r>
       <r>    1.0465    1.0000 </r>
       <r>    1.0911    1.0000 </r>
       <r>    1.1691    1.0000 </r>
       <r>    1.1919    1.0000 </r>
       <r>    1.2162    1.0000 </r>
       <r>    1.2551    1.0000 </r>
       <r>    1.2583    1.0000 </r>
       <r>    1.2923    1.0000 </r>
       <r>    1.4366    1.0000 </r>
       <r>    1.4561    1.0000 </r>
       <r>    1.5155    1.0000 </r>
       <r>    1.5186    1.0000 </r>
       <r>    1.5528    1.0000 </r>
       <r>    1.5671    1.0000 </r>
       <r>    1.5870    1.0000 </r>
       <r>    1.6650    1.0000 </r>
       <r>    1.6697    1.0000 </r>
       <r>    1.7119    1.0000 </r>
       <r>    1.8162    1.0000 </r>
       <r>    1.8321    1.0000 </r>
       <r>    1.8521    1.0000 </r>
       <r>    1.8808    1.0000 </r>
       <r>    1.9572    1.0000 </r>
       <r>    1.9777    1.0000 </r>
       <r>    1.9866    1.0000 </r>
       <r>    2.0659    1.0000 </r>
       <r>    2.1140    1.0000 </r>
       <r>    2.1412    1.0000 </r>
       <r>    2.1963    1.0000 </r>
       <r>    2.2503    1.0000 </r>
       <r>    2.2781    1.0000 </r>
       <r>    2.3056    1.0000 </r>
       <r>    2.3469    1.0000 </r>
       <r>    2.4282    1.0000 </r>
       <r>    2.4486    1.0000 </r>
       <r>    2.4715    1.0000 </r>
       <r>    2.5387    1.0000 </r>
       <r>    2.5576    1.0000 </r>
       <r>    2.5849    1.0000 </r>
       <r>    2.6360    1.0000 </r>
       <r>    2.6621    1.0000 </r>
       <r>    2.7519    1.0000 </r>
       <r>    2.7687    1.0000 </r>
       <r>    2.7852    1.0000 </r>
       <r>    2.7877    1.0000 </r>
       <r>    2.8382    1.0000 </r>
       <r>    2.8950    1.0000 </r>
       <r>    2.9006    1.0000 </r>
       <r>    2.9314    1.0000 </r>
       <r>    2.9544    1.0000 </r>
       <r>    2.9684    1.0000 </r>
       <r>    3.0158    1.0000 </r>
       <r>    3.0549    1.0000 </r>
       <r>    3.1371    1.0000 </r>
       <r>    3.1512    1.0000 </r>
       <r>    3.1672    1.0000 </r>
       <r>    3.2363    1.0000 </r>
       <r>    3.2997    1.0000 </r>
       <r>    3.3947    1.0000 </r>
       <r>    3.4180    1.0000 </r>
       <r>    3.4582    1.0000 </r>
       <r>    3.5535    1.0000 </r>
       <r>    3.5708    1.0000 </r>
       <r>    3.5735    1.0000 </r>
       <r>    3.5951    1.0000 </r>
       <r>    3.6869    1.0000 </r>
       <r>    3.7282    1.0000 </r>
       <r>    5.5629    0.0000 </r>
       <r>    5.5770    0.0000 </r>
       <r>    5.7230    0.0000 </r>
       <r>    5.7240    0.0000 </r>
       <r>    5.7560    0.0000 </r>
       <r>    5.7672    0.0000 </r>
       <r>    5.9143    0.0000 </r>
       <r>    5.9189    0.0000 </r>
       <r>    7.1860    0.0000 </r>
       <r>    7.2119    0.0000 </r>
       <r>    7.2710    0.0000 </r>
       <r>    7.3552    0.0000 </r>
       <r>    7.4186    0.0000 </r>
       <r>    7.4499    0.0000 </r>
       <r>    7.4642    0.0000 </r>
       <r>    7.4884    0.0000 </r>
       <r>    7.5130    0.0000 </r>
       <r>    7.5183    0.0000 </r>
       <r>    7.6114    0.0000 </r>
       <r>    7.6130    0.0000 </r>
       <r>    7.8138    0.0000 </r>
       <r>    7.8221    0.0000 </r>
       <r>    7.8718    0.0000 </r>
       <r>    7.8729    0.0000 </r>
       <r>    7.9018    0.0000 </r>
       <r>    7.9285    0.0000 </r>
       <r>    7.9544    0.0000 </r>
       <r>    7.9808    0.0000 </r>
       <r>    7.9886    0.0000 </r>
       <r>    8.0261    0.0000 </r>
       <r>    8.0502    0.0000 </r>
       <r>    8.1074    0.0000 </r>
       <r>    8.2268    0.0000 </r>
       <r>    8.2424    0.0000 </r>
       <r>    8.4499    0.0000 </r>
       <r>    8.6566    0.0000 </r>
       <r>    8.6680    0.0000 </r>
       <r>    8.7405    0.0000 </r>
       <r>    8.7493    0.0000 </r>
       <r>    8.7686    0.0000 </r>
       <r>    8.7791    0.0000 </r>
       <r>    8.8819    0.0000 </r>
       <r>    8.9379    0.0000 </r>
       <r>    8.9411    0.0000 </r>
       <r>    9.1050    0.0000 </r>
       <r>    9.3012    0.0000 </r>
      </set>
      <set comment="kpoint 3">
       <r>  -40.0942    1.0000 </r>
       <r>  -40.0941    1.0000 </r>
       <r>  -39.8110    1.0000 </r>
       <r>  -39.7564    1.0000 </r>
       <r>  -39.7107    1.0000 </r>
       <r>  -39.6336    1.0000 </r>
       <r>  -39.6331    1.0000 </r>
       <r>  -39.5616    1.0000 </r>
       <r>  -39.5609    1.0000 </r>
       <r>  -39.3557    1.0000 </r>
       <r>  -18.9186    1.0000 </r>
       <r>  -18.9143    1.0000 </r>
       <r>  -18.8486    1.0000 </r>
       <r>  -18.8454    1.0000 </r>
       <r>  -18.8414    1.0000 </r>
       <r>  -18.8382    1.0000 </r>
       <r>  -18.7489    1.0000 </r>
       <r>  -18.7451    1.0000 </r>
       <r>  -18.7269    1.0000 </r>
       <r>  -18.7231    1.0000 </r>
       <r>  -18.7158    1.0000 </r>
       <r>  -18.7116    1.0000 </r>
       <r>  -18.7059    1.0000 </r>
       <r>  -18.7018    1.0000 </r>
       <r>  -18.7001    1.0000 </r>
       <r>  -18.6950    1.0000 </r>
       <r>  -18.6457    1.0000 </r>
       <r>  -18.6449    1.0000 </r>
       <r>  -18.6399    1.0000 </r>
       <r>  -18.6397    1.0000 </r>
       <r>  -18.6376    1.0000 </r>
       <r>  -18.6372    1.0000 </r>
       <r>  -18.6361    1.0000 </r>
       <r>  -18.6345    1.0000 </r>
       <r>  -18.6326    1.0000 </r>
       <r>  -18.6304    1.0000 </r>
       <r>  -18.6297    1.0000 </r>
       <r>  -18.6297    1.0000 </r>
       <r>  -18.6290    1.0000 </r>
       <r>  -18.6283    1.0000 </r>
       <r>  -18.6267    1.0000 </r>
       <r>  -18.6255    1.0000 </r>
       <r>  -18.6242    1.0000 </r>
       <r>  -18.6233    1.0000 </r>
       <r>  -18.6206    1.0000 </r>
       <r>  -18.6197    1.0000 </r>
       <r>  -18.6191    1.0000 </r>
       <r>  -18.6169    1.0000 </r>
       <r>  -18.6152    1.0000 </r>
       <r>  -18.6133    1.0000 </r>
       <r>  -18.5610    1.0000 </r>
       <r>  -18.5605    1.0000 </r>
       <r>  -18.5597    1.0000 </r>
       <r>  -18.5554    1.0000 </r>
       <r>  -18.5475    1.0000 </r>
       <r>  -18.5463    1.0000 </r>
       <r>  -18.5432    1.0000 </r>
       <r>  -18.5380    1.0000 </r>
       <r>  -18.5348    1.0000 </r>
       <r>  -18.5333    1.0000 </r>
       <r>  -18.4909    1.0000 </r>
       <r>  -18.4897    1.0000 </r>
       <r>  -18.4793    1.0000 </r>
       <r>  -18.4788    1.0000 </r>
       <r>  -18.4760    1.0000 </r>
       <r>  -18.4757    1.0000 </r>
       <r>  -18.4755    1.0000 </r>
       <r>  -18.4751    1.0000 </r>
       <r>  -18.4749    1.0000 </r>
       <r>  -18.4744    1.0000 </r>
       <r>  -18.4742    1.0000 </r>
       <r>  -18.4738    1.0000 </r>
       <r>  -18.4651    1.0000 </r>
       <r>  -18.4642    1.0000 </r>
       <r>  -18.4615    1.0000 </r>
       <r>  -18.4605    1.0000 </r>
       <r>  -18.3990    1.0000 </r>
       <r>  -18.3977    1.0000 </r>
       <r>  -18.3914    1.0000 </r>
       <r>  -18.3881    1.0000 </r>
       <r>  -18.3875    1.0000 </r>
       <r>  -18.3863    1.0000 </r>
       <r>  -18.3784    1.0000 </r>
       <r>  -18.3746    1.0000 </r>
       <r>  -18.3000    1.0000 </r>
       <r>  -18.2953    1.0000 </r>
       <r>  -18.1848    1.0000 </r>
       <r>  -18.1804    1.0000 </r>
       <r>  -18.1711    1.0000 </r>
       <r>  -18.1667    1.0000 </r>
       <r>  -13.5558    1.0000 </r>
       <r>  -13.4583    1.0000 </r>
       <r>  -12.8886    1.0000 </r>
       <r>  -12.8000    1.0000 </r>
       <r>  -12.7844    1.0000 </r>
       <r>  -12.7484    1.0000 </r>
       <r>  -12.6990    1.0000 </r>
       <r>  -12.6926    1.0000 </r>
       <r>  -12.6846    1.0000 </r>
       <r>  -12.6667    1.0000 </r>
       <r>  -12.6309    1.0000 </r>
       <r>  -12.6136    1.0000 </r>
       <r>  -12.5626    1.0000 </r>
       <r>  -12.5226    1.0000 </r>
       <r>  -11.9576    1.0000 </r>
       <r>  -11.9064    1.0000 </r>
       <r>   -9.3083    1.0000 </r>
       <r>   -9.0303    1.0000 </r>
       <r>   -8.5388    1.0000 </r>
       <r>   -8.5134    1.0000 </r>
       <r>   -8.4942    1.0000 </r>
       <r>   -8.4518    1.0000 </r>
       <r>   -8.2768    1.0000 </r>
       <r>   -8.2570    1.0000 </r>
       <r>   -8.2291    1.0000 </r>
       <r>   -8.1912    1.0000 </r>
       <r>   -8.0239    1.0000 </r>
       <r>   -8.0213    1.0000 </r>
       <r>   -7.9869    1.0000 </r>
       <r>   -7.9856    1.0000 </r>
       <r>   -7.3506    1.0000 </r>
       <r>   -7.3493    1.0000 </r>
       <r>   -6.3536    1.0000 </r>
       <r>   -6.3472    1.0000 </r>
       <r>   -6.3254    1.0000 </r>
       <r>   -6.3184    1.0000 </r>
       <r>   -5.5340    1.0000 </r>
       <r>   -5.4688    1.0000 </r>
       <r>   -5.3885    1.0000 </r>
       <r>   -5.3781    1.0000 </r>
       <r>   -5.3671    1.0000 </r>
       <r>   -5.2624    1.0000 </r>
       <r>   -5.1448    1.0000 </r>
       <r>   -5.1059    1.0000 </r>
       <r>   -5.0668    1.0000 </r>
       <r>   -5.0043    1.0000 </r>
       <r>   -3.8696    1.0000 </r>
       <r>   -3.5594    1.0000 </r>
       <r>   -1.3530    1.0000 </r>
       <r>   -1.2582    1.0000 </r>
       <r>   -1.2345    1.0000 </r>
       <r>   -1.0393    1.0000 </r>
       <r>   -0.4293    1.0000 </r>
       <r>   -0.4264    1.0000 </r>
       <r>   -0.3940    1.0000 </r>
       <r>   -0.3762    1.0000 </r>
       <r>   -0.3527    1.0000 </r>
       <r>   -0.3260    1.0000 </r>
       <r>   -0.2722    1.0000 </r>
       <r>   -0.2137    1.0000 </r>
       <r>   -0.1313    1.0000 </r>
       <r>    0.0349    1.0000 </r>
       <r>    0.1025    1.0000 </r>
       <r>    0.2499    1.0000 </r>
       <r>    0.3137    1.0000 </r>
       <r>    0.3147    1.0000 </r>
       <r>    0.4067    1.0000 </r>
       <r>    0.4916    1.0000 </r>
       <r>    0.5123    1.0000 </r>
       <r>    0.5620    1.0000 </r>
       <r>    0.7325    1.0000 </r>
       <r>    0.7416    1.0000 </r>
       <r>    0.7640    1.0000 </r>
       <r>    0.8380    1.0000 </r>
       <r>    0.8435    1.0000 </r>
       <r>    0.9602    1.0000 </r>
       <r>    1.0075    1.0000 </r>
       <r>    1.0968    1.0000 </r>
       <r>    1.1096    1.0000 </r>
       <r>    1.1776    1.0000 </r>
       <r>    1.2665    1.0000 </r>
       <r>    1.3590    1.0000 </r>
       <r>    1.4835    1.0000 </r>
       <r>    1.4986    1.0000 </r>
       <r>    1.5744    1.0000 </r>
       <r>    1.5836    1.0000 </r>
       <r>    1.6425    1.0000 </r>
       <r>    1.6645    1.0000 </r>
       <r>    1.6798    1.0000 </r>
       <r>    1.7233    1.0000 </r>
       <r>    1.7577    1.0000 </r>
       <r>    1.7878    1.0000 </r>
       <r>    1.8198    1.0000 </r>
       <r>    1.8291    1.0000 </r>
       <r>    1.8640    1.0000 </r>
       <r>    1.9529    1.0000 </r>
       <r>    2.0065    1.0000 </r>
       <r>    2.0146    1.0000 </r>
       <r>    2.0499    1.0000 </r>
       <r>    2.0970    1.0000 </r>
       <r>    2.1386    1.0000 </r>
       <r>    2.2260    1.0000 </r>
       <r>    2.2398    1.0000 </r>
       <r>    2.3084    1.0000 </r>
       <r>    2.4610    1.0000 </r>
       <r>    2.4906    1.0000 </r>
       <r>    2.5332    1.0000 </r>
       <r>    2.5604    1.0000 </r>
       <r>    2.5621    1.0000 </r>
       <r>    2.5795    1.0000 </r>
       <r>    2.5858    1.0000 </r>
       <r>    2.5911    1.0000 </r>
       <r>    2.6019    1.0000 </r>
       <r>    2.6056    1.0000 </r>
       <r>    2.6692    1.0000 </r>
       <r>    2.6995    1.0000 </r>
       <r>    2.7564    1.0000 </r>
       <r>    2.7969    1.0000 </r>
       <r>    2.8084    1.0000 </r>
       <r>    2.8288    1.0000 </r>
       <r>    2.8309    1.0000 </r>
       <r>    2.8416    1.0000 </r>
       <r>    2.8958    1.0000 </r>
       <r>    2.9119    1.0000 </r>
       <r>    2.9629    1.0000 </r>
       <r>    2.9691    1.0000 </r>
       <r>    3.0120    1.0000 </r>
       <r>    3.0342    1.0000 </r>
       <r>    3.0636    1.0000 </r>
       <r>    3.0778    1.0000 </r>
       <r>    3.1711    1.0000 </r>
       <r>    3.2816    1.0000 </r>
       <r>    3.3517    1.0000 </r>
       <r>    3.3906    1.0000 </r>
       <r>    3.4215    1.0000 </r>
       <r>    3.4519    1.0000 </r>
       <r>    3.4525    1.0000 </r>
       <r>    3.4648    1.0000 </r>
       <r>    3.5070    1.0000 </r>
       <r>    3.6012    1.0000 </r>
       <r>    4.2455    1.0000 </r>
       <r>    4.2489    1.0000 </r>
       <r>    4.2853    1.0000 </r>
       <r>    4.2898    1.0000 </r>
       <r>    5.1324    0.0000 </r>
       <r>    5.1359    0.0000 </r>
       <r>    5.2382    0.0000 </r>
       <r>    5.2439    0.0000 </r>
       <r>    5.7551    0.0000 </r>
       <r>    5.7641    0.0000 </r>
       <r>    5.8353    0.0000 </r>
       <r>    5.8394    0.0000 </r>
       <r>    6.1678    0.0000 </r>
       <r>    6.1802    0.0000 </r>
       <r>    6.1905    0.0000 </r>
       <r>    6.2058    0.0000 </r>
       <r>    6.2497    0.0000 </r>
       <r>    6.2662    0.0000 </r>
       <r>    6.2861    0.0000 </r>
       <r>    6.2893    0.0000 </r>
       <r>    6.7913    0.0000 </r>
       <r>    6.7969    0.0000 </r>
       <r>    7.0536    0.0000 </r>
       <r>    7.1022    0.0000 </r>
       <r>    7.1994    0.0000 </r>
       <r>    7.3868    0.0000 </r>
       <r>    7.4587    0.0000 </r>
       <r>    7.5443    0.0000 </r>
       <r>    7.7869    0.0000 </r>
       <r>    7.8321    0.0000 </r>
       <r>    7.9371    0.0000 </r>
       <r>    7.9870    0.0000 </r>
       <r>    8.0292    0.0000 </r>
       <r>    8.3122    0.0000 </r>
       <r>    8.3420    0.0000 </r>
       <r>    8.4607    0.0000 </r>
       <r>    8.6950    0.0000 </r>
       <r>    8.7741    0.0000 </r>
       <r>    8.9489    0.0000 </r>
       <r>    9.0231    0.0000 </r>
       <r>    9.0295    0.0000 </r>
       <r>    9.0533    0.0000 </r>
       <r>    9.0772    0.0000 </r>
       <r>    9.1060    0.0000 </r>
       <r>    9.1088    0.0000 </r>
       <r>    9.1578    0.0000 </r>
       <r>    9.1686    0.0000 </r>
       <r>    9.2138    0.0000 </r>
       <r>    9.5176    0.0000 </r>
       <r>    9.5611    0.0000 </r>
      </set>
      <set comment="kpoint 4">
       <r>  -40.0942    1.0000 </r>
       <r>  -40.0940    1.0000 </r>
       <r>  -39.8110    1.0000 </r>
       <r>  -39.7564    1.0000 </r>
       <r>  -39.7107    1.0000 </r>
       <r>  -39.6336    1.0000 </r>
       <r>  -39.6331    1.0000 </r>
       <r>  -39.5616    1.0000 </r>
       <r>  -39.5609    1.0000 </r>
       <r>  -39.3557    1.0000 </r>
       <r>  -18.9186    1.0000 </r>
       <r>  -18.9143    1.0000 </r>
       <r>  -18.8486    1.0000 </r>
       <r>  -18.8453    1.0000 </r>
       <r>  -18.8414    1.0000 </r>
       <r>  -18.8382    1.0000 </r>
       <r>  -18.7489    1.0000 </r>
       <r>  -18.7451    1.0000 </r>
       <r>  -18.7269    1.0000 </r>
       <r>  -18.7231    1.0000 </r>
       <r>  -18.7156    1.0000 </r>
       <r>  -18.7114    1.0000 </r>
       <r>  -18.7059    1.0000 </r>
       <r>  -18.7017    1.0000 </r>
       <r>  -18.7000    1.0000 </r>
       <r>  -18.6949    1.0000 </r>
       <r>  -18.6464    1.0000 </r>
       <r>  -18.6459    1.0000 </r>
       <r>  -18.6396    1.0000 </r>
       <r>  -18.6394    1.0000 </r>
       <r>  -18.6379    1.0000 </r>
       <r>  -18.6373    1.0000 </r>
       <r>  -18.6354    1.0000 </r>
       <r>  -18.6336    1.0000 </r>
       <r>  -18.6332    1.0000 </r>
       <r>  -18.6312    1.0000 </r>
       <r>  -18.6308    1.0000 </r>
       <r>  -18.6307    1.0000 </r>
       <r>  -18.6298    1.0000 </r>
       <r>  -18.6287    1.0000 </r>
       <r>  -18.6264    1.0000 </r>
       <r>  -18.6239    1.0000 </r>
       <r>  -18.6237    1.0000 </r>
       <r>  -18.6218    1.0000 </r>
       <r>  -18.6208    1.0000 </r>
       <r>  -18.6202    1.0000 </r>
       <r>  -18.6187    1.0000 </r>
       <r>  -18.6168    1.0000 </r>
       <r>  -18.6151    1.0000 </r>
       <r>  -18.6132    1.0000 </r>
       <r>  -18.5610    1.0000 </r>
       <r>  -18.5605    1.0000 </r>
       <r>  -18.5597    1.0000 </r>
       <r>  -18.5554    1.0000 </r>
       <r>  -18.5476    1.0000 </r>
       <r>  -18.5464    1.0000 </r>
       <r>  -18.5432    1.0000 </r>
       <r>  -18.5380    1.0000 </r>
       <r>  -18.5348    1.0000 </r>
       <r>  -18.5333    1.0000 </r>
       <r>  -18.4909    1.0000 </r>
       <r>  -18.4897    1.0000 </r>
       <r>  -18.4793    1.0000 </r>
       <r>  -18.4788    1.0000 </r>
       <r>  -18.4760    1.0000 </r>
       <r>  -18.4757    1.0000 </r>
       <r>  -18.4754    1.0000 </r>
       <r>  -18.4752    1.0000 </r>
       <r>  -18.4749    1.0000 </r>
       <r>  -18.4744    1.0000 </r>
[...]
       <r>    8.8682    0.0000 </r>
       <r>    8.8858    0.0000 </r>
       <r>    8.9046    0.0000 </r>
       <r>    8.9173    0.0000 </r>
       <r>    8.9499    0.0000 </r>
      </set>
     </set>
    </set>
   </array>
  </eigenvalues>
  <separator name="orbital magnetization" >
   <v name="MAGDIPOLOUT">      0.00000000      0.00000000      0.00000000</v>
  </separator>
  <dos>
   <i name="efermi">      4.30590198 </i>
   <total>
    <array>
     <dimension dim="1">gridpoints</dimension>
     <dimension dim="2">spin</dimension>
     <field>energy</field>
     <field>total</field>
     <field>integrated</field>
     <set>
      <set comment="spin 1">
       <r>   -42.5770     0.0000     0.0000 </r>
       <r>   -42.3949     0.0000     0.0000 </r>
       <r>   -42.2128     0.0000     0.0000 </r>
       <r>   -42.0308     0.0000     0.0000 </r>
       <r>   -41.8487     0.0000     0.0000 </r>
       <r>   -41.6666     0.0000     0.0000 </r>
       <r>   -41.4846     0.0000     0.0000 </r>
       <r>   -41.3025     0.0000     0.0000 </r>
       <r>   -41.1204     0.0000     0.0000 </r>
       <r>   -40.9383     0.0000     0.0000 </r>
       <r>   -40.7563     0.0000     0.0000 </r>
       <r>   -40.5742     0.0000     0.0000 </r>
       <r>   -40.3921     0.0000     0.0000 </r>
       <r>   -40.2101     0.0000     0.0000 </r>
       <r>   -40.0280     0.0000     4.0000 </r>
       <r>   -39.8459     0.0000     4.0000 </r>
       <r>   -39.6639     0.0000    10.0000 </r>
       <r>   -39.4818     0.0000    18.0000 </r>
       <r>   -39.2997     0.0000    20.0000 </r>
       <r>   -39.1177     0.0000    20.0000 </r>
       <r>   -38.9356     0.0000    20.0000 </r>
       <r>   -38.7535     0.0000    20.0000 </r>
       <r>   -38.5714     0.0000    20.0000 </r>
       <r>   -38.3894     0.0000    20.0000 </r>
       <r>   -38.2073     0.0000    20.0000 </r>
       <r>   -38.0252     0.0000    20.0000 </r>
       <r>   -37.8432     0.0000    20.0000 </r>
       <r>   -37.6611     0.0000    20.0000 </r>
       <r>   -37.4790     0.0000    20.0000 </r>
       <r>   -37.2970     0.0000    20.0000 </r>
       <r>   -37.1149     0.0000    20.0000 </r>
       <r>   -36.9328     0.0000    20.0000 </r>
       <r>   -36.7508     0.0000    20.0000 </r>
       <r>   -36.5687     0.0000    20.0000 </r>
       <r>   -36.3866     0.0000    20.0000 </r>
       <r>   -36.2045     0.0000    20.0000 </r>
       <r>   -36.0225     0.0000    20.0000 </r>
       <r>   -35.8404     0.0000    20.0000 </r>
       <r>   -35.6583     0.0000    20.0000 </r>
       <r>   -35.4763     0.0000    20.0000 </r>
       <r>   -35.2942     0.0000    20.0000 </r>
       <r>   -35.1121     0.0000    20.0000 </r>
       <r>   -34.9301     0.0000    20.0000 </r>
       <r>   -34.7480     0.0000    20.0000 </r>
       <r>   -34.5659     0.0000    20.0000 </r>
       <r>   -34.3838     0.0000    20.0000 </r>
       <r>   -34.2018     0.0000    20.0000 </r>
       <r>   -34.0197     0.0000    20.0000 </r>
       <r>   -33.8376     0.0000    20.0000 </r>
       <r>   -33.6556     0.0000    20.0000 </r>
       <r>   -33.4735     0.0000    20.0000 </r>
       <r>   -33.2914     0.0000    20.0000 </r>
       <r>   -33.1094     0.0000    20.0000 </r>
       <r>   -32.9273     0.0000    20.0000 </r>
       <r>   -32.7452     0.0000    20.0000 </r>
       <r>   -32.5632     0.0000    20.0000 </r>
       <r>   -32.3811     0.0000    20.0000 </r>
       <r>   -32.1990     0.0000    20.0000 </r>
       <r>   -32.0169     0.0000    20.0000 </r>
       <r>   -31.8349     0.0000    20.0000 </r>
       <r>   -31.6528     0.0000    20.0000 </r>
       <r>   -31.4707     0.0000    20.0000 </r>
       <r>   -31.2887     0.0000    20.0000 </r>
       <r>   -31.1066     0.0000    20.0000 </r>
       <r>   -30.9245     0.0000    20.0000 </r>
       <r>   -30.7425     0.0000    20.0000 </r>
       <r>   -30.5604     0.0000    20.0000 </r>
       <r>   -30.3783     0.0000    20.0000 </r>
       <r>   -30.1963     0.0000    20.0000 </r>
       <r>   -30.0142     0.0000    20.0000 </r>
       <r>   -29.8321     0.0000    20.0000 </r>
       <r>   -29.6500     0.0000    20.0000 </r>
       <r>   -29.4680     0.0000    20.0000 </r>
       <r>   -29.2859     0.0000    20.0000 </r>
       <r>   -29.1038     0.0000    20.0000 </r>
       <r>   -28.9218     0.0000    20.0000 </r>
       <r>   -28.7397     0.0000    20.0000 </r>
       <r>   -28.5576     0.0000    20.0000 </r>
       <r>   -28.3756     0.0000    20.0000 </r>
       <r>   -28.1935     0.0000    20.0000 </r>
       <r>   -28.0114     0.0000    20.0000 </r>
       <r>   -27.8293     0.0000    20.0000 </r>
       <r>   -27.6473     0.0000    20.0000 </r>
       <r>   -27.4652     0.0000    20.0000 </r>
       <r>   -27.2831     0.0000    20.0000 </r>
       <r>   -27.1011     0.0000    20.0000 </r>
       <r>   -26.9190     0.0000    20.0000 </r>
       <r>   -26.7369     0.0000    20.0000 </r>
       <r>   -26.5549     0.0000    20.0000 </r>
       <r>   -26.3728     0.0000    20.0000 </r>
       <r>   -26.1907     0.0000    20.0000 </r>
       <r>   -26.0087     0.0000    20.0000 </r>
       <r>   -25.8266     0.0000    20.0000 </r>
       <r>   -25.6445     0.0000    20.0000 </r>
       <r>   -25.4624     0.0000    20.0000 </r>
       <r>   -25.2804     0.0000    20.0000 </r>
       <r>   -25.0983     0.0000    20.0000 </r>
       <r>   -24.9162     0.0000    20.0000 </r>
       <r>   -24.7342     0.0000    20.0000 </r>
       <r>   -24.5521     0.0000    20.0000 </r>
       <r>   -24.3700     0.0000    20.0000 </r>
       <r>   -24.1880     0.0000    20.0000 </r>
       <r>   -24.0059     0.0000    20.0000 </r>
       <r>   -23.8238     0.0000    20.0000 </r>
       <r>   -23.6418     0.0000    20.0000 </r>
       <r>   -23.4597     0.0000    20.0000 </r>
       <r>   -23.2776     0.0000    20.0000 </r>
       <r>   -23.0955     0.0000    20.0000 </r>
       <r>   -22.9135     0.0000    20.0000 </r>
       <r>   -22.7314     0.0000    20.0000 </r>
       <r>   -22.5493     0.0000    20.0000 </r>
       <r>   -22.3673     0.0000    20.0000 </r>
       <r>   -22.1852     0.0000    20.0000 </r>
       <r>   -22.0031     0.0000    20.0000 </r>
       <r>   -21.8211     0.0000    20.0000 </r>
       <r>   -21.6390     0.0000    20.0000 </r>
       <r>   -21.4569     0.0000    20.0000 </r>
       <r>   -21.2749     0.0000    20.0000 </r>
       <r>   -21.0928     0.0000    20.0000 </r>
       <r>   -20.9107     0.0000    20.0000 </r>
       <r>   -20.7286     0.0000    20.0000 </r>
       <r>   -20.5466     0.0000    20.0000 </r>
       <r>   -20.3645     0.0000    20.0000 </r>
       <r>   -20.1824     0.0000    20.0000 </r>
       <r>   -20.0004     0.0000    20.0000 </r>
       <r>   -19.8183     0.0000    20.0000 </r>
       <r>   -19.6362     0.0000    20.0000 </r>
       <r>   -19.4542     0.0000    20.0000 </r>
       <r>   -19.2721     0.0000    20.0000 </r>
       <r>   -19.0900     0.0000    20.0000 </r>
       <r>   -18.9079     0.0000    24.0000 </r>
       <r>   -18.7259     0.0000    38.0000 </r>
       <r>   -18.5438     0.0000   112.0000 </r>
       <r>   -18.3617     0.0000   168.0000 </r>
       <r>   -18.1797     0.0000   176.0000 </r>
       <r>   -17.9976     0.0000   180.0000 </r>
       <r>   -17.8155     0.0000   180.0000 </r>
       <r>   -17.6335     0.0000   180.0000 </r>
       <r>   -17.4514     0.0000   180.0000 </r>
       <r>   -17.2693     0.0000   180.0000 </r>
       <r>   -17.0873     0.0000   180.0000 </r>
       <r>   -16.9052     0.0000   180.0000 </r>
       <r>   -16.7231     0.0000   180.0000 </r>
       <r>   -16.5410     0.0000   180.0000 </r>
       <r>   -16.3590     0.0000   180.0000 </r>
       <r>   -16.1769     0.0000   180.0000 </r>
       <r>   -15.9948     0.0000   180.0000 </r>
       <r>   -15.8128     0.0000   180.0000 </r>
       <r>   -15.6307     0.0000   180.0000 </r>
       <r>   -15.4486     0.0000   180.0000 </r>
       <r>   -15.2666     0.0000   180.0000 </r>
       <r>   -15.0845     0.0000   180.0000 </r>
       <r>   -14.9024     0.0000   180.0000 </r>
       <r>   -14.7204     0.0000   180.0000 </r>
       <r>   -14.5383     0.0000   180.0000 </r>
       <r>   -14.3562     0.0000   180.0000 </r>
       <r>   -14.1741     0.0000   180.0000 </r>
       <r>   -13.9921     0.0000   180.0000 </r>
       <r>   -13.8100     0.0000   180.0000 </r>
       <r>   -13.6279     0.0000   180.0000 </r>
       <r>   -13.4459     0.0000   184.0000 </r>
       <r>   -13.2638     0.0000   184.0000 </r>
       <r>   -13.0817     0.0000   184.0000 </r>
       <r>   -12.8997     0.0000   184.0000 </r>
       <r>   -12.7176    88.4005   192.8584 </r>
       <r>   -12.5355     0.0000   206.0000 </r>
       <r>   -12.3534     0.0000   208.0000 </r>
       <r>   -12.1714     0.0000   208.0000 </r>
       <r>   -11.9893     0.0000   208.0000 </r>
       <r>   -11.8072     0.0000   212.0000 </r>
       <r>   -11.6252     0.0000   212.0000 </r>
       <r>   -11.4431     0.0000   212.0000 </r>
       <r>   -11.2610     0.0000   212.0000 </r>
       <r>   -11.0790     0.0000   212.0000 </r>
       <r>   -10.8969     0.0000   212.0000 </r>
       <r>   -10.7148     0.0000   212.0000 </r>
       <r>   -10.5328     0.0000   212.0000 </r>
       <r>   -10.3507     0.0000   212.0000 </r>
       <r>   -10.1686     0.0000   212.0000 </r>
       <r>    -9.9865     0.0000   212.0000 </r>
       <r>    -9.8045     0.0000   212.0000 </r>
       <r>    -9.6224     0.0000   212.0000 </r>
       <r>    -9.4403     0.0000   212.0000 </r>
       <r>    -9.2583     4.1701   212.1148 </r>
       <r>    -9.0762    14.5345   213.7897 </r>
       <r>    -8.8941     1.4815   216.0034 </r>
       <r>    -8.7121    14.0138   218.6734 </r>
       <r>    -8.5300    14.0432   221.0192 </r>
       <r>    -8.3479    25.0151   225.6170 </r>
       <r>    -8.1659    23.7119   228.7822 </r>
       <r>    -7.9838    23.9776   233.4242 </r>
       <r>    -7.8017    16.1263   237.0750 </r>
       <r>    -7.6196    21.0193   240.1823 </r>
       <r>    -7.4376    10.1200   243.5491 </r>
       <r>    -7.2555     0.0000   244.0000 </r>
       <r>    -7.0734     0.0000   244.0000 </r>
       <r>    -6.8914     0.0000   244.0000 </r>
       <r>    -6.7093     0.0000   244.0000 </r>
       <r>    -6.5272     0.0000   244.0000 </r>
       <r>    -6.3452     0.6325   244.0037 </r>
       <r>    -6.1631    17.9068   245.6360 </r>
       <r>    -5.9810    18.4292   250.0781 </r>
       <r>    -5.7990    22.0888   253.4577 </r>
       <r>    -5.6169    24.3023   258.2101 </r>
       <r>    -5.4348    23.1023   262.1465 </r>
       <r>    -5.2527    16.9260   265.7734 </r>
       <r>    -5.0707     5.3043   267.7724 </r>
       <r>    -4.8886     7.0824   268.6387 </r>
       <r>    -4.7065     8.0670   270.0247 </r>
       <r>    -4.5245    10.2033   271.7331 </r>
       <r>    -4.3424     5.9175   273.1456 </r>
       <r>    -4.1603     7.0476   274.4010 </r>
       <r>    -3.9783     4.0245   275.4214 </r>
       <r>    -3.7962     1.2621   275.8752 </r>
       <r>    -3.6141     0.1154   275.9979 </r>
       <r>    -3.4320     0.0000   276.0000 </r>
       <r>    -3.2500     0.0000   276.0000 </r>
       <r>    -3.0679     0.0000   276.0000 </r>
       <r>    -2.8858     0.0000   276.0000 </r>
       <r>    -2.7038     0.0000   276.0000 </r>
       <r>    -2.5217     0.0000   276.0000 </r>
       <r>    -2.3396     0.0000   276.0000 </r>
       <r>    -2.1576     0.0000   276.0000 </r>
       <r>    -1.9755     0.0000   276.0000 </r>
       <r>    -1.7934     0.0000   276.0000 </r>
       <r>    -1.6114     0.0000   276.0000 </r>
       <r>    -1.4293     0.0746   276.0006 </r>
       <r>    -1.2472     5.3144   276.3679 </r>
       <r>    -1.0651    11.3258   278.0060 </r>
       <r>    -0.8831    12.8271   280.1567 </r>
       <r>    -0.7010     8.1609   282.1526 </r>
       <r>    -0.5189     4.9569   283.2707 </r>
       <r>    -0.3369    20.9011   285.9369 </r>
       <r>    -0.1548    26.9796   290.0701 </r>
       <r>     0.0273    36.2454   296.6788 </r>
       <r>     0.2093    30.5651   302.8982 </r>
       <r>     0.3914    37.7122   309.4709 </r>
       <r>     0.5735    49.2340   316.5603 </r>
       <r>     0.7555    38.6316   324.2182 </r>
       <r>     0.9376    26.9507   329.0740 </r>
       <r>     1.1197    50.2207   337.7483 </r>
       <r>     1.3018    40.4347   345.8303 </r>
       <r>     1.4838    54.1111   353.1477 </r>
       <r>     1.6659    48.8494   363.0887 </r>
       <r>     1.8480    45.9905   372.7851 </r>
       <r>     2.0300    41.7809   381.2717 </r>
       <r>     2.2121    35.2450   389.3662 </r>
       <r>     2.3942    49.9906   396.7136 </r>
       <r>     2.5762    64.9256   407.3663 </r>
       <r>     2.7583    66.6149   418.8906 </r>
       <r>     2.9404    82.5401   431.5960 </r>
       <r>     3.1225    55.5309   443.6351 </r>
       <r>     3.3045    38.7015   451.0956 </r>
       <r>     3.4866    40.5611   457.8457 </r>
       <r>     3.6687    15.2247   462.8563 </r>
       <r>     3.8507    11.7219   465.6752 </r>
       <r>     4.0328     6.3239   467.3182 </r>
       <r>     4.2149     0.9472   467.9773 </r>
       <r>     4.3969     0.0000   468.0000 </r>
       <r>     4.5790     0.0000   468.0000 </r>
       <r>     4.7611     0.0000   468.0000 </r>
       <r>     4.9431     0.0000   468.0000 </r>
       <r>     5.1252     0.3004   468.0064 </r>
       <r>     5.3073     3.3296   468.2918 </r>
       <r>     5.4894     7.3317   469.2622 </r>
       <r>     5.6714     9.4514   470.8855 </r>
       <r>     5.8535    26.9248   474.1295 </r>
       <r>     6.0356    13.0562   477.1829 </r>
       <r>     6.2176    11.5048   479.3753 </r>
       <r>     6.3997    12.7817   481.5555 </r>
       <r>     6.5818    14.5224   484.0414 </r>
       <r>     6.7638    16.2488   486.8427 </r>
       <r>     6.9459    18.4963   489.9830 </r>
       <r>     7.1280    23.4956   493.7163 </r>
       <r>     7.3100    33.9815   499.0449 </r>
       <r>     7.4921    38.1185   506.5597 </r>
       <r>     7.6742    28.4912   511.6438 </r>
       <r>     7.8563    45.1227   519.2497 </r>
       <r>     8.0383    35.4332   527.6528 </r>
       <r>     8.2204    20.4598   532.4041 </r>
       <r>     8.4025    18.5330   535.8311 </r>
       <r>     8.5845    23.9531   539.6349 </r>
       <r>     8.7666    25.1074   544.3391 </r>
       <r>     8.9487    37.6175   552.2586 </r>
       <r>     9.1307    16.6389   557.2600 </r>
       <r>     9.3128     7.2939   559.2489 </r>
       <r>     9.4949     1.0025   559.9757 </r>
       <r>     9.6769     0.0000   560.0000 </r>
       <r>     9.8590     0.0000   560.0000 </r>
       <r>    10.0411     0.0000   560.0000 </r>
       <r>    10.2232     0.0000   560.0000 </r>
       <r>    10.4052     0.0000   560.0000 </r>
       <r>    10.5873     0.0000   560.0000 </r>
       <r>    10.7694     0.0000   560.0000 </r>
       <r>    10.9514     0.0000   560.0000 </r>
       <r>    11.1335     0.0000   560.0000 </r>
       <r>    11.3156     0.0000   560.0000 </r>
       <r>    11.4976     0.0000   560.0000 </r>
       <r>    11.6797     0.0000   560.0000 </r>
       <r>    11.8618     0.0000   560.0000 </r>
       <r>    12.0439     0.0000   560.0000 </r>
      </set>
     </set>
    </array>
   </total>
  </dos>
 </calculation>
 <structure name="finalpos" >
  <crystal>
   <varray name="basis" >
    <v>      11.17850000       0.00000000       0.00000000 </v>
    <v>       0.00000000       9.57460000       0.00000000 </v>
    <v>       0.00000000       0.00000000      11.18240000 </v>
   </varray>
   <i name="volume">   1196.84853820 </i>
   <varray name="rec_basis" >
    <v>       0.08945744       0.00000000       0.00000000 </v>
    <v>       0.00000000       0.10444301       0.00000000 </v>
    <v>       0.00000000       0.00000000       0.08942624 </v>
   </varray>
  </crystal>
  <varray name="positions" >
   <v>       0.37539000       0.00017000       0.43687000 </v>
   <v>       0.37461000       0.00017000       0.18687000 </v>
   <v>       0.62461000       0.99984000       0.18687000 </v>
   <v>       0.87461000       0.00017000       0.18687000 </v>
   <v>       0.37539000       0.00017000       0.93687000 </v>
   <v>       0.37461000       0.00017000       0.68687000 </v>
   <v>       0.62539000       0.99984000       0.93687000 </v>
   <v>       0.87539000       0.00017000       0.93687000 </v>
   <v>       0.62461000       0.99984000       0.68687000 </v>
   <v>       0.87461000       0.00017000       0.68687000 </v>
   <v>       0.12461000       0.99984000       0.18687000 </v>
   <v>       0.87539000       0.00017000       0.43687000 </v>
   <v>       0.12461000       0.99984000       0.68687000 </v>
   <v>       0.00013000       0.29519000       0.06281000 </v>
   <v>       0.25013000       0.70481000       0.06281000 </v>
   <v>       0.24987000       0.29519000       0.31282000 </v>
   <v>       0.49987000       0.70481000       0.31282000 </v>
   <v>       0.50013000       0.29519000       0.06281000 </v>
   <v>       0.75013000       0.70481000       0.06281000 </v>
   <v>       0.74987000       0.29519000       0.31282000 </v>
   <v>       0.99987000       0.70481000       0.31282000 </v>
   <v>       0.00013000       0.29519000       0.56281000 </v>
   <v>       0.25013000       0.70481000       0.56281000 </v>
   <v>       0.24987000       0.29519000       0.81282000 </v>
   <v>       0.49987000       0.70481000       0.81282000 </v>
   <v>       0.50013000       0.29519000       0.56281000 </v>
   <v>       0.75013000       0.70481000       0.56281000 </v>
   <v>       0.74987000       0.29519000       0.81282000 </v>
   <v>       0.99987000       0.70481000       0.81282000 </v>
   <v>       0.25005000       0.32677000       0.06286000 </v>
   <v>       0.00005000       0.67323000       0.06286000 </v>
   <v>       0.49995000       0.32677000       0.31286000 </v>
   <v>       0.24995000       0.67323000       0.31286000 </v>
   <v>       0.75005000       0.32677000       0.06286000 </v>
   <v>       0.50005000       0.67323000       0.06286000 </v>
   <v>       0.99995000       0.32677000       0.31286000 </v>
   <v>       0.74995000       0.67323000       0.31286000 </v>
   <v>       0.25005000       0.32677000       0.56286000 </v>
   <v>       0.00005000       0.67323000       0.56286000 </v>
   <v>       0.49995000       0.32677000       0.81286000 </v>
   <v>       0.24995000       0.67323000       0.81286000 </v>
   <v>       0.75005000       0.32677000       0.56286000 </v>
   <v>       0.50005000       0.67323000       0.56286000 </v>
   <v>       0.99995000       0.32677000       0.81286000 </v>
   <v>       0.74995000       0.67323000       0.81286000 </v>
   <v>       0.49987000       0.07798000       0.06246000 </v>
   <v>       0.24987000       0.92202000       0.06246000 </v>
   <v>       0.25013000       0.07798000       0.31246000 </v>
   <v>       0.00013000       0.92202000       0.31246000 </v>
   <v>       0.99987000       0.07798000       0.06246000 </v>
   <v>       0.74987000       0.92202000       0.06246000 </v>
   <v>       0.75013000       0.07798000       0.31246000 </v>
   <v>       0.50013000       0.92202000       0.31246000 </v>
   <v>       0.49987000       0.07798000       0.56246000 </v>
   <v>       0.24987000       0.92202000       0.56246000 </v>
   <v>       0.25013000       0.07798000       0.81246000 </v>
   <v>       0.00013000       0.92202000       0.81246000 </v>
   <v>       0.99987000       0.07798000       0.56246000 </v>
   <v>       0.74987000       0.92202000       0.56246000 </v>
   <v>       0.75013000       0.07798000       0.81246000 </v>
   <v>       0.50013000       0.92202000       0.81246000 </v>
  </varray>
 </structure>
</modeling>
