<?xml version="1.0" encoding="ISO-8859-1"?>
<modeling>
 <generator>
  <i name="program" type="string">vasp </i>
  <i name="version" type="string">5.3.3  </i>
  <i name="subversion" type="string">18Dez12 (build Nov 19 2020 19:34:37) complex                          parallel </i>
  <i name="platform" type="string">LinuxIFC </i>
  <i name="date" type="string">2021 10 01 </i>
  <i name="time" type="string">16:45:08 </i>
 </generator>
 <incar>
  <i type="string" name="SYSTEM"> La2O2S</i>
  <i type="string" name="PREC">normal</i>
  <i type="int" name="NELMIN">     4</i>
  <i type="int" name="IBRION">     2</i>
  <i type="int" name="NFREE">    10</i>
  <i name="EDIFF">      0.00000100</i>
  <i name="EDIFFG">     -0.01000000</i>
  <i type="int" name="NSW">    10</i>
  <i type="int" name="ISIF">     2</i>
  <i name="ENCUT">    600.00000000</i>
  <i name="ENAUG">    900.00000000</i>
  <i type="int" name="ISMEAR">    -5</i>
  <i type="logical" name="LWAVE"> F  </i>
  <i type="logical" name="LCHARG"> F  </i>
 </incar>
 <kpoints>
  <generation param="Gamma">
   <v type="int" name="divisions">       2        2        2 </v>
   <v name="usershift">      0.00000000       0.00000000       0.00000000 </v>
   <v name="genvec1">      0.50000000       0.00000000       0.00000000 </v>
   <v name="genvec2">      0.00000000       0.50000000       0.00000000 </v>
   <v name="genvec3">      0.00000000       0.00000000       0.50000000 </v>
   <v name="shift">      0.00000000       0.00000000       0.00000000 </v>
  </generation>
  <varray name="kpointlist" >
   <v>       0.00000000       0.00000000       0.00000000 </v>
   <v>       0.50000000       0.00000000       0.00000000 </v>
   <v>       0.00000000       0.50000000       0.00000000 </v>
   <v>       0.50000000       0.50000000       0.00000000 </v>
   <v>       0.00000000       0.00000000       0.50000000 </v>
   <v>       0.50000000       0.00000000       0.50000000 </v>
   <v>       0.00000000       0.50000000       0.50000000 </v>
   <v>       0.50000000       0.50000000       0.50000000 </v>
  </varray>
  <varray name="weights" >
   <v>       0.12500000 </v>
   <v>       0.12500000 </v>
   <v>       0.12500000 </v>
   <v>       0.12500000 </v>
   <v>       0.12500000 </v>
   <v>       0.12500000 </v>
   <v>       0.12500000 </v>
   <v>       0.12500000 </v>
  </varray>
  <varray name="tetrahedronlist"  type="int" >
   <v type="int" >        2        1        2        4        5 </v>
   <v type="int" >        2        1        3        4        5 </v>
   <v type="int" >        2        3        4        5        7 </v>
   <v type="int" >        2        2        4        5        6 </v>
   <v type="int" >        2        4        5        6        8 </v>
   <v type="int" >        2        4        5        7        8 </v>
   <v type="int" >        2        1        2        3        6 </v>
   <v type="int" >        2        2        3        4        6 </v>
   <v type="int" >        2        3        4        6        8 </v>
   <v type="int" >        2        1        3        5        6 </v>
   <v type="int" >        2        3        5        6        7 </v>
   <v type="int" >        2        3        6        7        8 </v>
   <v type="int" >        2        2        3        4        7 </v>
   <v type="int" >        2        1        2        3        7 </v>
   <v type="int" >        2        1        2        5        7 </v>
   <v type="int" >        2        2        4        7        8 </v>
   <v type="int" >        2        2        6        7        8 </v>
   <v type="int" >        2        2        5        6        7 </v>
   <v type="int" >        2        1        3        4        8 </v>
   <v type="int" >        2        1        2        4        8 </v>
   <v type="int" >        2        1        2        6        8 </v>
   <v type="int" >        2        1        3        7        8 </v>
   <v type="int" >        2        1        5        7        8 </v>
   <v type="int" >        2        1        5        6        8 </v>
  </varray>
  <i name="volumeweight">      0.02083333 </i>
 </kpoints>
 <parameters>
  <separator name="general" >
   <i type="string" name="SYSTEM">La2O2S</i>
   <i type="logical" name="LCOMPAT"> F  </i>
  </separator>
  <separator name="electronic" >
   <i type="string" name="PREC">normal</i>
   <i name="ENMAX">    600.00000000</i>
   <i name="ENAUG">    900.00000000</i>
   <i name="EDIFF">      0.00000100</i>
   <i type="int" name="IALGO">    38</i>
   <i type="int" name="IWAVPR">    11</i>
   <i type="int" name="NBANDS">   320</i>
   <i name="NELECT">    472.00000000</i>
   <i type="int" name="TURBO">     0</i>
   <i type="int" name="IRESTART">     0</i>
   <i type="int" name="NREBOOT">     0</i>
   <i type="int" name="NMIN">     0</i>
   <i name="EREF">      0.00000000</i>
   <separator name="electronic smearing" >
    <i type="int" name="ISMEAR">    -5</i>
    <i name="SIGMA">      0.20000000</i>
    <i name="KSPACING">      0.50000000</i>
    <i type="logical" name="KGAMMA"> T  </i>
   </separator>
   <separator name="electronic projectors" >
    <i type="logical" name="LREAL"> F  </i>
    <v name="ROPT">      0.00000000      0.00000000      0.00000000      0.00000000      0.00000000</v>
    <i type="int" name="LMAXPAW">  -100</i>
    <i type="int" name="LMAXMIX">     2</i>
    <i type="logical" name="NLSPLINE"> F  </i>
   </separator>
   <separator name="electronic startup" >
    <i type="int" name="ISTART">     0</i>
    <i type="int" name="ICHARG">     2</i>
    <i type="int" name="INIWAV">     1</i>
   </separator>
   <separator name="electronic spin" >
    <i type="int" name="ISPIN">     1</i>
    <i type="logical" name="LNONCOLLINEAR"> F  </i>
    <v name="MAGMOM">      1.00000000      1.00000000      1.00000000      1.00000000      1.00000000      1.00000000      1.00000000      1.00000000      1.00000000      1.00000000      1.00000000      1.00000000      1.00000000      1.00000000      1.00000000      1.00000000      1.00000000      1.00000000      1.00000000      1.00000000
      1.00000000      1.00000000      1.00000000      1.00000000      1.00000000      1.00000000      1.00000000      1.00000000      1.00000000      1.00000000      1.00000000      1.00000000      1.00000000      1.00000000      1.00000000      1.00000000      1.00000000      1.00000000      1.00000000      1.00000000
      1.00000000      1.00000000      1.00000000      1.00000000      1.00000000      1.00000000      1.00000000      1.00000000      1.00000000      1.00000000      1.00000000      1.00000000      1.00000000      1.00000000      1.00000000      1.00000000      1.00000000      1.00000000      1.00000000      1.00000000
      1.00000000      1.00000000</v>
    <i name="NUPDOWN">     -1.00000000</i>
    <i type="logical" name="LSORBIT"> F  </i>
    <v name="SAXIS">      0.00000000      0.00000000      1.00000000</v>
    <i type="logical" name="LSPIRAL"> F  </i>
    <v name="QSPIRAL">      0.00000000      0.00000000      0.00000000</v>
    <i type="logical" name="LZEROZ"> F  </i>
   </separator>
   <separator name="electronic exchange-correlation" >
    <i type="logical" name="LASPH"> F  </i>
    <i type="logical" name="LMETAGGA"> F  </i>
   </separator>
   <separator name="electronic convergence" >
    <i type="int" name="NELM">    60</i>
    <i type="int" name="NELMDL">    -5</i>
    <i type="int" name="NELMIN">     4</i>
    <i name="ENINI">    600.00000000</i>
    <separator name="electronic convergence detail" >
     <i type="logical" name="LDIAG"> T  </i>
     <i type="logical" name="LSUBROT"> T  </i>
     <i name="WEIMIN">      0.00100000</i>
     <i name="EBREAK">      0.00000000</i>
     <i name="DEPER">      0.30000000</i>
     <i type="int" name="NRMM">     4</i>
     <i name="TIME">      0.40000000</i>
    </separator>
   </separator>
   <separator name="electronic mixer" >
    <i name="AMIX">      0.40000000</i>
    <i name="BMIX">      1.00000000</i>
    <i name="AMIN">      0.10000000</i>
    <i name="AMIX_MAG">      1.60000000</i>
    <i name="BMIX_MAG">      1.00000000</i>
    <separator name="electronic mixer details" >
     <i type="int" name="IMIX">     4</i>
     <i type="int" name="MAXMIX">   -45</i>
     <i name="WC">    100.00000000</i>
     <i type="int" name="INIMIX">     1</i>
     <i type="int" name="MIXPRE">     1</i>
     <i type="int" name="MREMOVE">     5</i>
    </separator>
   </separator>
   <separator name="electronic dipolcorrection" >
    <i type="logical" name="LDIPOL"> F  </i>
    <i type="logical" name="LMONO"> F  </i>
    <i type="int" name="IDIPOL">     0</i>
    <i name="EPSILON">      1.00000000</i>
    <v name="DIPOL">   -100.00000000   -100.00000000   -100.00000000</v>
    <i name="EFIELD">      0.00000000</i>
   </separator>
  </separator>
  <separator name="grids" >
   <i type="int" name="NGX">    70</i>
   <i type="int" name="NGY">    60</i>
   <i type="int" name="NGZ">    70</i>
   <i type="int" name="NGXF">   140</i>
   <i type="int" name="NGYF">   120</i>
   <i type="int" name="NGZF">   140</i>
   <i type="logical" name="ADDGRID"> F  </i>
  </separator>
  <separator name="ionic" >
   <i type="int" name="NSW">    10</i>
   <i type="int" name="IBRION">     2</i>
   <i type="int" name="ISIF">     2</i>
   <i name="PSTRESS">      0.00000000</i>
   <i name="EDIFFG">     -0.01000000</i>
   <i type="int" name="NFREE">    10</i>
   <i name="POTIM">      0.50000000</i>
   <i name="SMASS">     -3.00000000</i>
   <i name="SCALEE">      1.00000000</i>
  </separator>
  <separator name="ionic md" >
   <i name="TEBEG">      0.00010000</i>
   <i name="TEEND">      0.00010000</i>
   <i type="int" name="NBLOCK">     1</i>
   <i type="int" name="KBLOCK">    10</i>
   <i type="int" name="NPACO">   256</i>
   <i name="APACO">     16.00000000</i>
  </separator>
  <separator name="symmetry" >
   <i type="int" name="ISYM">     2</i>
   <i name="SYMPREC">      0.00001000</i>
  </separator>
  <separator name="dos" >
   <i type="logical" name="LORBIT"> F  </i>
   <v name="RWIGS">     -1.00000000     -1.00000000     -1.00000000     -1.00000000     -1.00000000</v>
   <i type="int" name="NEDOS">   301</i>
   <i name="EMIN">     10.00000000</i>
   <i name="EMAX">    -10.00000000</i>
   <i name="EFERMI">      0.00000000</i>
  </separator>
  <separator name="writing" >
   <i type="int" name="NWRITE">     2</i>
   <i type="logical" name="LWAVE"> F  </i>
   <i type="logical" name="LCHARG"> F  </i>
   <i type="logical" name="LPARD"> F  </i>
   <i type="logical" name="LVTOT"> F  </i>
   <i type="logical" name="LVHAR"> F  </i>
   <i type="logical" name="LELF"> F  </i>
   <i type="logical" name="LOPTICS"> F  </i>
   <v name="STM">      0.00000000      0.00000000      0.00000000      0.00000000      0.00000000      0.00000000      0.00000000</v>
  </separator>
  <separator name="performance" >
   <i type="int" name="NPAR">    40</i>
   <i type="int" name="NSIM">     4</i>
   <i type="int" name="NBLK">    -1</i>
   <i type="logical" name="LPLANE"> T  </i>
   <i type="logical" name="LSCALAPACK"> F  </i>
   <i type="logical" name="LSCAAWARE"> F  </i>
   <i type="logical" name="LSCALU"> F  </i>
   <i type="logical" name="LASYNC"> F  </i>
   <i type="logical" name="LORBITALREAL"> F  </i>
  </separator>
  <separator name="miscellaneous" >
   <i type="int" name="IDIOT">     3</i>
   <i type="logical" name="LMUSIC"> F  </i>
   <v name="POMASS">      7.01000000     24.30500000    208.98000000     32.06600000     16.00000000</v>
   <v name="DARWINR">      0.00000000      0.00000000      0.00000000      0.00000000      0.00000000</v>
   <v name="DARWINV">      1.00000000      1.00000000      1.00000000      1.00000000      1.00000000</v>
   <i type="logical" name="LCORR"> T  </i>
  </separator>
  <i type="logical" name="GGA_COMPAT"> T  </i>
  <i type="logical" name="LBERRY"> F  </i>
  <i type="int" name="ICORELEVEL">     0</i>
  <i type="logical" name="LDAU"> F  </i>
  <i type="int" name="I_CONSTRAINED_M">     0</i>
  <separator name="electronic exchange-correlation" >
   <i type="string" name="GGA">--</i>
   <i type="int" name="VOSKOWN">     0</i>
   <i type="logical" name="LHFCALC"> F  </i>
   <i type="string" name="PRECFOCK"></i>
   <i type="logical" name="LSYMGRAD"> F  </i>
   <i type="logical" name="LHFONE"> F  </i>
   <i type="logical" name="LRHFCALC"> F  </i>
   <i type="logical" name="LTHOMAS"> F  </i>
   <i type="logical" name="LMODELHF"> F  </i>
   <i name="ENCUT4O">     -1.00000000</i>
   <i type="int" name="EXXOEP">     0</i>
   <i type="int" name="FOURORBIT">     0</i>
   <i name="AEXX">      0.00000000</i>
   <i name="HFALPHA">      0.00000000</i>
   <i name="MCALPHA">      0.00000000</i>
   <i name="ALDAX">      1.00000000</i>
   <i name="AGGAX">      1.00000000</i>
   <i name="ALDAC">      1.00000000</i>
   <i name="AGGAC">      1.00000000</i>
   <i type="int" name="NKREDX">     1</i>
   <i type="int" name="NKREDY">     1</i>
   <i type="int" name="NKREDZ">     1</i>
   <i type="logical" name="SHIFTRED"> F  </i>
   <i type="logical" name="ODDONLY"> F  </i>
   <i type="logical" name="EVENONLY"> F  </i>
   <i type="int" name="LMAXFOCK">     0</i>
   <i type="int" name="NMAXFOCKAE">     0</i>
   <i type="logical" name="LFOCKAEDFT"> F  </i>
   <i name="HFSCREEN">      0.00000000</i>
   <i name="HFSCREENC">      0.00000000</i>
   <i type="int" name="NBANDSGWLOW">     0</i>
  </separator>
  <separator name="vdW DFT" >
   <i type="logical" name="LUSE_VDW"> F  </i>
   <i name="Zab_VDW">     -0.84910000</i>
   <i name="PARAM1">      0.12340000</i>
   <i name="PARAM2">      1.00000000</i>
   <i name="PARAM3">      0.00000000</i>
  </separator>
  <separator name="model GW" >
   <i type="int" name="MODEL_GW">     0</i>
   <i name="MODEL_EPS0">     11.58240521</i>
   <i name="MODEL_ALPHA">      1.00000000</i>
  </separator>
  <separator name="linear response parameters" >
   <i type="logical" name="LEPSILON"> F  </i>
   <i type="logical" name="LRPA"> F  </i>
   <i type="logical" name="LNABLA"> F  </i>
   <i type="logical" name="LVEL"> F  </i>
   <i type="int" name="KINTER">     0</i>
   <i name="CSHIFT">      0.10000000</i>
   <i name="OMEGAMAX">     -1.00000000</i>
   <i name="DEG_THRESHOLD">      0.00200000</i>
  </separator>
  <separator name="orbital magnetization" >
   <i type="logical" name="NUCIND"> F  </i>
   <v name="MAGPOS">      0.00000000      0.00000000      0.00000000</v>
   <i type="logical" name="LNICSALL"> T  </i>
   <i type="logical" name="ORBITALMAG"> F  </i>
   <i type="logical" name="LMAGBLOCH"> F  </i>
   <i type="logical" name="LCHIMAG"> F  </i>
   <i type="logical" name="LGAUGE"> T  </i>
   <i type="int" name="MAGATOM">     0</i>
   <v name="MAGDIPOL">      0.00000000      0.00000000      0.00000000</v>
   <v name="AVECCONST">      0.00000000      0.00000000      0.00000000</v>
  </separator>
  <separator name="response functions" >
   <i type="logical" name="LADDER"> F  </i>
   <i type="logical" name="LFXC"> F  </i>
   <i type="logical" name="LHARTREE"> T  </i>
   <i type="int" name="IBSE">     0</i>
   <i type="logical" name="LTCTE"> F  </i>
   <i type="logical" name="LTETE"> F  </i>
   <i type="logical" name="LTRIPLET"> F  </i>
   <i type="logical" name="LFXCEPS"> F  </i>
   <i type="logical" name="L2ORDER"> F  </i>
   <i type="logical" name="LUSEW"> F  </i>
   <i name="ENCUTGW">     -2.00000000</i>
   <i name="ENCUTGWSOFT">     -2.00000000</i>
   <i name="ENCUTLF">     -1.00000000</i>
   <i type="int" name="LMAXMP2">    -1</i>
   <i name="SCISSOR">      0.00000000</i>
   <i type="int" name="NOMEGA">     0</i>
   <i type="int" name="NOMEGAR">     0</i>
   <i type="int" name="NBANDSGW">    -1</i>
   <i type="int" name="NBANDSO">    -1</i>
   <i type="int" name="NBANDSV">    -1</i>
   <i type="int" name="NELM">     1</i>
   <i type="int" name="DIM">     3</i>
   <i type="int" name="ANTIRES">     0</i>
   <i name="OMEGAMAX">    -30.00000000</i>
   <i name="OMEGATL">   -200.00000000</i>
   <i type="int" name="OMEGAGRID">     0</i>
   <i name="CSHIFT">     -0.10000000</i>
   <i type="logical" name="SELFENERGY"> F  </i>
   <i type="logical" name="LSPECTRAL"> F  </i>
   <i type="logical" name="ODDONLYGW"> F  </i>
   <i type="logical" name="EVENONLYGW"> F  </i>
   <i type="int" name="NKREDLFX">     1</i>
   <i type="int" name="NKREDLFY">     1</i>
   <i type="int" name="NKREDLFZ">     1</i>
   <i type="int" name="MAXMEM">  1800</i>
   <i type="int" name="TELESCOPE">     0</i>
  </separator>
 </parameters>
 <atominfo>
  <atoms>      62 </atoms>
  <types>       5 </types>
  <array name="atoms" >
   <dimension dim="1">ion</dimension>
   <field type="string">element</field>
   <field type="int">atomtype</field>
   <set>
    <rc><c>Li</c><c>   1</c></rc>
    <rc><c>Li</c><c>   1</c></rc>
    <rc><c>Li</c><c>   1</c></rc>
    <rc><c>Li</c><c>   1</c></rc>
    <rc><c>Li</c><c>   1</c></rc>
    <rc><c>Li</c><c>   1</c></rc>
    <rc><c>Li</c><c>   1</c></rc>
    <rc><c>Li</c><c>   1</c></rc>
    <rc><c>Li</c><c>   1</c></rc>
    <rc><c>Li</c><c>   1</c></rc>
    <rc><c>Li</c><c>   1</c></rc>
    <rc><c>Li</c><c>   1</c></rc>
    <rc><c>Mg</c><c>   2</c></rc>
    <rc><c>Mg</c><c>   2</c></rc>
    <rc><c>Bi</c><c>   3</c></rc>
    <rc><c>Bi</c><c>   3</c></rc>
    <rc><c>Bi</c><c>   3</c></rc>
    <rc><c>Bi</c><c>   3</c></rc>
    <rc><c>Bi</c><c>   3</c></rc>
    <rc><c>Bi</c><c>   3</c></rc>
    <rc><c>Bi</c><c>   3</c></rc>
    <rc><c>Bi</c><c>   3</c></rc>
    <rc><c>Bi</c><c>   3</c></rc>
    <rc><c>Bi</c><c>   3</c></rc>
    <rc><c>Bi</c><c>   3</c></rc>
    <rc><c>Bi</c><c>   3</c></rc>
    <rc><c>Bi</c><c>   3</c></rc>
    <rc><c>Bi</c><c>   3</c></rc>
    <rc><c>Bi</c><c>   3</c></rc>
    <rc><c>Bi</c><c>   3</c></rc>
    <rc><c>S </c><c>   4</c></rc>
    <rc><c>S </c><c>   4</c></rc>
    <rc><c>S </c><c>   4</c></rc>
    <rc><c>S </c><c>   4</c></rc>
    <rc><c>S </c><c>   4</c></rc>
    <rc><c>S </c><c>   4</c></rc>
    <rc><c>S </c><c>   4</c></rc>
    <rc><c>S </c><c>   4</c></rc>
    <rc><c>S </c><c>   4</c></rc>
    <rc><c>S </c><c>   4</c></rc>
    <rc><c>S </c><c>   4</c></rc>
    <rc><c>S </c><c>   4</c></rc>
    <rc><c>S </c><c>   4</c></rc>
    <rc><c>S </c><c>   4</c></rc>
    <rc><c>S </c><c>   4</c></rc>
    <rc><c>S </c><c>   4</c></rc>
    <rc><c>O </c><c>   5</c></rc>
    <rc><c>O </c><c>   5</c></rc>
    <rc><c>O </c><c>   5</c></rc>
    <rc><c>O </c><c>   5</c></rc>
    <rc><c>O </c><c>   5</c></rc>
    <rc><c>O </c><c>   5</c></rc>
    <rc><c>O </c><c>   5</c></rc>
    <rc><c>O </c><c>   5</c></rc>
    <rc><c>O </c><c>   5</c></rc>
    <rc><c>O </c><c>   5</c></rc>
    <rc><c>O </c><c>   5</c></rc>
    <rc><c>O </c><c>   5</c></rc>
    <rc><c>O </c><c>   5</c></rc>
    <rc><c>O </c><c>   5</c></rc>
    <rc><c>O </c><c>   5</c></rc>
    <rc><c>O </c><c>   5</c></rc>
   </set>
  </array>
  <array name="atomtypes" >
   <dimension dim="1">type</dimension>
   <field type="int">atomspertype</field>
   <field type="string">element</field>
   <field>mass</field>
   <field>valence</field>
   <field type="string">pseudopotential</field>
   <set>
    <rc><c>  12</c><c>Li</c><c>      7.01000000</c><c>      3.00000000</c><c>  PAW_PBE Li_sv 10Sep2004               </c></rc>
    <rc><c>   2</c><c>Mg</c><c>     24.30500000</c><c>      2.00000000</c><c>  PAW_PBE Mg 13Apr2007                  </c></rc>
    <rc><c>  16</c><c>Bi</c><c>    208.98000000</c><c>     15.00000000</c><c>  PAW_PBE Bi_d 06Sep2000                </c></rc>
    <rc><c>  16</c><c>S </c><c>     32.06600000</c><c>      6.00000000</c><c>  PAW_PBE S 06Sep2000                   </c></rc>
    <rc><c>  16</c><c>O </c><c>     16.00000000</c><c>      6.00000000</c><c>  PAW_PBE O 08Apr2002                   </c></rc>
   </set>
  </array>
 </atominfo>
 <structure name="initialpos" >
  <crystal>
   <varray name="basis" >
    <v>      11.17850000       0.00000000       0.00000000 </v>
    <v>       0.00000000       9.57460000       0.00000000 </v>
    <v>       0.00000000       0.00000000      11.18240000 </v>
   </varray>
   <i name="volume">   1196.84853820 </i>
   <varray name="rec_basis" >
    <v>       0.08945744       0.00000000       0.00000000 </v>
    <v>       0.00000000       0.10444301       0.00000000 </v>
    <v>       0.00000000       0.00000000       0.08942624 </v>
   </varray>
  </crystal>
  <varray name="positions" >
   <v>       0.37539000       0.00017000       0.43687000 </v>
   <v>       0.12461000       0.99984000       0.18687000 </v>
   <v>       0.37461000       0.00017000       0.18687000 </v>
   <v>       0.62539000       0.99984000       0.43687000 </v>
   <v>       0.62461000       0.99984000       0.18687000 </v>
   <v>       0.87461000       0.00017000       0.18687000 </v>
   <v>       0.12539000       0.99984000       0.93687000 </v>
   <v>       0.37539000       0.00017000       0.93687000 </v>
   <v>       0.37461000       0.00017000       0.68687000 </v>
   <v>       0.62539000       0.99984000       0.93687000 </v>
   <v>       0.62461000       0.99984000       0.68687000 </v>
   <v>       0.87461000       0.00017000       0.68687000 </v>
   <v>       0.87539000       0.00017000       0.43687000 </v>
   <v>       0.12461000       0.99984000       0.68687000 </v>
   <v>       0.00013000       0.29519000       0.06281000 </v>
   <v>       0.25013000       0.70481000       0.06281000 </v>
   <v>       0.24987000       0.29519000       0.31282000 </v>
   <v>       0.49987000       0.70481000       0.31282000 </v>
   <v>       0.50013000       0.29519000       0.06281000 </v>
   <v>       0.75013000       0.70481000       0.06281000 </v>
   <v>       0.74987000       0.29519000       0.31282000 </v>
   <v>       0.99987000       0.70481000       0.31282000 </v>
   <v>       0.00013000       0.29519000       0.56281000 </v>
   <v>       0.25013000       0.70481000       0.56281000 </v>
   <v>       0.24987000       0.29519000       0.81282000 </v>
   <v>       0.49987000       0.70481000       0.81282000 </v>
   <v>       0.50013000       0.29519000       0.56281000 </v>
   <v>       0.75013000       0.70481000       0.56281000 </v>
   <v>       0.74987000       0.29519000       0.81282000 </v>
   <v>       0.99987000       0.70481000       0.81282000 </v>
   <v>       0.25005000       0.32677000       0.06286000 </v>
   <v>       0.00005000       0.67323000       0.06286000 </v>
   <v>       0.49995000       0.32677000       0.31286000 </v>
   <v>       0.24995000       0.67323000       0.31286000 </v>
   <v>       0.75005000       0.32677000       0.06286000 </v>
   <v>       0.50005000       0.67323000       0.06286000 </v>
   <v>       0.99995000       0.32677000       0.31286000 </v>
   <v>       0.74995000       0.67323000       0.31286000 </v>
   <v>       0.25005000       0.32677000       0.56286000 </v>
   <v>       0.00005000       0.67323000       0.56286000 </v>
   <v>       0.49995000       0.32677000       0.81286000 </v>
   <v>       0.24995000       0.67323000       0.81286000 </v>
   <v>       0.75005000       0.32677000       0.56286000 </v>
   <v>       0.50005000       0.67323000       0.56286000 </v>
   <v>       0.99995000       0.32677000       0.81286000 </v>
   <v>       0.74995000       0.67323000       0.81286000 </v>
   <v>       0.49987000       0.07798000       0.06246000 </v>
   <v>       0.24987000       0.92202000       0.06246000 </v>
   <v>       0.25013000       0.07798000       0.31246000 </v>
   <v>       0.00013000       0.92202000       0.31246000 </v>
   <v>       0.99987000       0.07798000       0.06246000 </v>
   <v>       0.74987000       0.92202000       0.06246000 </v>
   <v>       0.75013000       0.07798000       0.31246000 </v>
   <v>       0.50013000       0.92202000       0.31246000 </v>
   <v>       0.49987000       0.07798000       0.56246000 </v>
   <v>       0.24987000       0.92202000       0.56246000 </v>
   <v>       0.25013000       0.07798000       0.81246000 </v>
   <v>       0.00013000       0.92202000       0.81246000 </v>
   <v>       0.99987000       0.07798000       0.56246000 </v>
   <v>       0.74987000       0.92202000       0.56246000 </v>
   <v>       0.75013000       0.07798000       0.81246000 </v>
   <v>       0.50013000       0.92202000       0.81246000 </v>
  </varray>
 </structure>
 <calculation>
  <scstep>
   <time name="dav">   45.72   45.91</time>
   <time name="total">   45.90   46.21</time>
   <energy>
    <i name="alphaZ">   1079.87189334 </i>
    <i name="ewald"> -31110.14887064 </i>
    <i name="hartreedc"> -12714.87553706 </i>
    <i name="XCdc">   1468.88811217 </i>
    <i name="pawpsdc">  36917.91861236 </i>
    <i name="pawaedc"> -36503.41947684 </i>
    <i name="eentropy">      0.00000000 </i>
    <i name="bandstr">   1393.95365023 </i>
    <i name="atom">  45173.57650906 </i>
    <i name="e_fr_energy">   5705.76489262 </i>
    <i name="e_wo_entrp">   5705.76489262 </i>
    <i name="e_0_energy">   5705.76489262 </i>
   </energy>
  </scstep>
  <scstep>
   <time name="dav">   45.95   46.21</time>
   <time name="total">   45.96   47.15</time>
   <energy>
    <i name="e_fr_energy">    652.51230018 </i>
    <i name="e_wo_entrp">    652.51230018 </i>
    <i name="e_0_energy">    652.51230018 </i>
   </energy>
  </scstep>
  <scstep>
   <time name="dav">   52.11   52.42</time>
   <time name="total">   52.12   52.47</time>
   <energy>
    <i name="e_fr_energy">   -268.82786182 </i>
    <i name="e_wo_entrp">   -268.82786182 </i>
    <i name="e_0_energy">   -268.82786182 </i>
   </energy>
  </scstep>
  <scstep>
   <time name="dav">   60.22   60.57</time>
   <time name="total">   60.23   60.64</time>
   <energy>
    <i name="e_fr_energy">   -355.16103824 </i>
    <i name="e_wo_entrp">   -355.16103824 </i>
    <i name="e_0_energy">   -355.16103824 </i>
   </energy>
  </scstep>
  <scstep>
   <time name="dav">   73.46   73.70</time>
   <time name="total">   73.91   74.25</time>
   <energy>
    <i name="e_fr_energy">   -361.24265207 </i>
    <i name="e_wo_entrp">   -361.24265207 </i>
    <i name="e_0_energy">   -361.24265207 </i>
   </energy>
  </scstep>
  <scstep>
   <time name="dav">   67.20   67.74</time>
   <time name="total">   67.73   68.38</time>
   <energy>
    <i name="e_fr_energy">   -301.68901886 </i>
    <i name="e_wo_entrp">   -301.68901886 </i>
    <i name="e_0_energy">   -301.68901886 </i>
   </energy>
  </scstep>
  <scstep>
   <time name="dav">   49.98   50.09</time>
   <time name="total">   50.51   50.72</time>
   <energy>
    <i name="e_fr_energy">   -303.34085678 </i>
    <i name="e_wo_entrp">   -303.34085678 </i>
    <i name="e_0_energy">   -303.34085678 </i>
   </energy>
  </scstep>
  <scstep>
   <time name="dav">   55.63   55.77</time>
   <time name="total">   56.19   56.42</time>
   <energy>
    <i name="e_fr_energy">   -301.85913006 </i>
    <i name="e_wo_entrp">   -301.85913006 </i>
    <i name="e_0_energy">   -301.85913006 </i>
   </energy>
  </scstep>
  <scstep>
   <time name="dav">   62.31   62.85</time>
   <time name="total">   62.83   63.52</time>
   <energy>
    <i name="e_fr_energy">   -301.28552510 </i>
    <i name="e_wo_entrp">   -301.28552510 </i>
    <i name="e_0_energy">   -301.28552510 </i>
   </energy>
  </scstep>
  <scstep>
   <time name="dav">   60.64   61.25</time>
   <time name="total">   61.16   61.85</time>
   <energy>
    <i name="e_fr_energy">   -301.28344731 </i>
    <i name="e_wo_entrp">   -301.28344731 </i>
    <i name="e_0_energy">   -301.28344731 </i>
   </energy>
  </scstep>
  <scstep>
   <time name="dav">   56.61   57.07</time>
   <time name="total">   57.14   57.76</time>
   <energy>
    <i name="e_fr_energy">   -301.28949739 </i>
    <i name="e_wo_entrp">   -301.28949739 </i>
    <i name="e_0_energy">   -301.28949739 </i>
   </energy>
  </scstep>
  <scstep>
   <time name="dav">   57.72   57.99</time>
   <time name="total">   58.25   58.62</time>
   <energy>
    <i name="e_fr_energy">   -301.29363810 </i>
    <i name="e_wo_entrp">   -301.29363810 </i>
    <i name="e_0_energy">   -301.29363810 </i>
   </energy>
  </scstep>
  <scstep>
   <time name="dav">   56.53   57.18</time>
   <time name="total">   57.03   57.75</time>
   <energy>
    <i name="e_fr_energy">   -301.29445933 </i>
    <i name="e_wo_entrp">   -301.29445933 </i>
    <i name="e_0_energy">   -301.29445933 </i>
   </energy>
  </scstep>
  <scstep>
   <time name="dav">   62.79   63.64</time>
   <time name="total">   63.29   64.24</time>
   <energy>
    <i name="e_fr_energy">   -301.29466133 </i>
    <i name="e_wo_entrp">   -301.29466133 </i>
    <i name="e_0_energy">   -301.29466133 </i>
   </energy>
  </scstep>
  <scstep>
   <time name="dav">   55.84   56.39</time>
   <time name="total">   56.37   57.00</time>
   <energy>
    <i name="e_fr_energy">   -301.29468169 </i>
    <i name="e_wo_entrp">   -301.29468169 </i>
    <i name="e_0_energy">   -301.29468169 </i>
   </energy>
  </scstep>
  <scstep>
   <time name="dav">   54.70   54.78</time>
   <time name="total">   55.21   55.37</time>
   <energy>
    <i name="e_fr_energy">   -301.29469334 </i>
    <i name="e_wo_entrp">   -301.29469334 </i>
    <i name="e_0_energy">   -301.29469334 </i>
   </energy>
  </scstep>
  <scstep>
   <time name="dav">   57.51   58.26</time>
   <time name="total">   58.02   58.86</time>
   <energy>
    <i name="e_fr_energy">   -301.29469472 </i>
    <i name="e_wo_entrp">   -301.29469472 </i>
    <i name="e_0_energy">   -301.29469472 </i>
   </energy>
  </scstep>
  <scstep>
   <time name="dav">   42.99   43.12</time>
   <time name="total">   43.06   43.29</time>
   <energy>
    <i name="alphaZ">   1079.87189334 </i>
    <i name="ewald"> -31110.14887064 </i>
    <i name="hartreedc"> -12950.87002029 </i>
    <i name="XCdc">   1491.82493288 </i>
    <i name="pawpsdc">  43947.48857547 </i>
    <i name="pawaedc"> -43508.49419537 </i>
    <i name="eentropy">      0.00000000 </i>
    <i name="bandstr">  -4424.54351952 </i>
    <i name="atom">  45173.57650906 </i>
    <i name="e_fr_energy">   -301.29469506 </i>
    <i name="e_wo_entrp">   -301.29469506 </i>
    <i name="e_0_energy">   -301.29469506 </i>
   </energy>
  </scstep>
  <structure>
   <crystal>
    <varray name="basis" >
     <v>      11.17850000       0.00000000       0.00000000 </v>
     <v>       0.00000000       9.57460000       0.00000000 </v>
     <v>       0.00000000       0.00000000      11.18240000 </v>
    </varray>
    <i name="volume">   1196.84853820 </i>
    <varray name="rec_basis" >
     <v>       0.08945744       0.00000000       0.00000000 </v>
     <v>       0.00000000       0.10444301       0.00000000 </v>
     <v>       0.00000000       0.00000000       0.08942624 </v>
    </varray>
   </crystal>
   <varray name="positions" >
    <v>       0.37539000       0.00017000       0.43687000 </v>
    <v>       0.12461000       0.99984000       0.18687000 </v>
    <v>       0.37461000       0.00017000       0.18687000 </v>
    <v>       0.62539000       0.99984000       0.43687000 </v>
    <v>       0.62461000       0.99984000       0.18687000 </v>
    <v>       0.87461000       0.00017000       0.18687000 </v>
    <v>       0.12539000       0.99984000       0.93687000 </v>
    <v>       0.37539000       0.00017000       0.93687000 </v>
    <v>       0.37461000       0.00017000       0.68687000 </v>
    <v>       0.62539000       0.99984000       0.93687000 </v>
    <v>       0.62461000       0.99984000       0.68687000 </v>
    <v>       0.87461000       0.00017000       0.68687000 </v>
    <v>       0.87539000       0.00017000       0.43687000 </v>
    <v>       0.12461000       0.99984000       0.68687000 </v>
    <v>       0.00013000       0.29519000       0.06281000 </v>
    <v>       0.25013000       0.70481000       0.06281000 </v>
    <v>       0.24987000       0.29519000       0.31282000 </v>
    <v>       0.49987000       0.70481000       0.31282000 </v>
    <v>       0.50013000       0.29519000       0.06281000 </v>
    <v>       0.75013000       0.70481000       0.06281000 </v>
    <v>       0.74987000       0.29519000       0.31282000 </v>
    <v>       0.99987000       0.70481000       0.31282000 </v>
    <v>       0.00013000       0.29519000       0.56281000 </v>
    <v>       0.25013000       0.70481000       0.56281000 </v>
    <v>       0.24987000       0.29519000       0.81282000 </v>
    <v>       0.49987000       0.70481000       0.81282000 </v>
    <v>       0.50013000       0.29519000       0.56281000 </v>
    <v>       0.75013000       0.70481000       0.56281000 </v>
    <v>       0.74987000       0.29519000       0.81282000 </v>
    <v>       0.99987000       0.70481000       0.81282000 </v>
    <v>       0.25005000       0.32677000       0.06286000 </v>
    <v>       0.00005000       0.67323000       0.06286000 </v>
    <v>       0.49995000       0.32677000       0.31286000 </v>
    <v>       0.24995000       0.67323000       0.31286000 </v>
    <v>       0.75005000       0.32677000       0.06286000 </v>
    <v>       0.50005000       0.67323000       0.06286000 </v>
    <v>       0.99995000       0.32677000       0.31286000 </v>
    <v>       0.74995000       0.67323000       0.31286000 </v>
    <v>       0.25005000       0.32677000       0.56286000 </v>
    <v>       0.00005000       0.67323000       0.56286000 </v>
    <v>       0.49995000       0.32677000       0.81286000 </v>
    <v>       0.24995000       0.67323000       0.81286000 </v>
    <v>       0.75005000       0.32677000       0.56286000 </v>
    <v>       0.50005000       0.67323000       0.56286000 </v>
    <v>       0.99995000       0.32677000       0.81286000 </v>
    <v>       0.74995000       0.67323000       0.81286000 </v>
    <v>       0.49987000       0.07798000       0.06246000 </v>
    <v>       0.24987000       0.92202000       0.06246000 </v>
    <v>       0.25013000       0.07798000       0.31246000 </v>
    <v>       0.00013000       0.92202000       0.31246000 </v>
    <v>       0.99987000       0.07798000       0.06246000 </v>
    <v>       0.74987000       0.92202000       0.06246000 </v>
    <v>       0.75013000       0.07798000       0.31246000 </v>
    <v>       0.50013000       0.92202000       0.31246000 </v>
    <v>       0.49987000       0.07798000       0.56246000 </v>
    <v>       0.24987000       0.92202000       0.56246000 </v>
    <v>       0.25013000       0.07798000       0.81246000 </v>
    <v>       0.00013000       0.92202000       0.81246000 </v>
    <v>       0.99987000       0.07798000       0.56246000 </v>
    <v>       0.74987000       0.92202000       0.56246000 </v>
    <v>       0.75013000       0.07798000       0.81246000 </v>
    <v>       0.50013000       0.92202000       0.81246000 </v>
   </varray>
  </structure>
  <varray name="forces" >
   <v>      -0.42476834       0.06775319      -0.11388992 </v>
   <v>      -0.06637455       0.13232169       0.22190235 </v>
   <v>      -0.15015318       0.06521543       0.13525613 </v>
   <v>      -0.51120595       0.00159100      -0.03532442 </v>
   <v>       0.07368491      -0.12617314      -0.28462295 </v>
   <v>       0.16998908      -0.06408633      -0.84627223 </v>
   <v>      -0.49997230       0.00138613       0.52677738 </v>
   <v>       0.08696353      -0.06491819       0.13072259 </v>
   <v>       0.32677622      -0.06243352      -0.12969339 </v>
   <v>       0.47798761       0.00454117       0.04718355 </v>
   <v>       0.07537657       0.13287286       0.29551618 </v>
   <v>      -0.30746942       0.06832226       0.86521409 </v>
   <v>       0.80654103      -0.11641826      -0.22780069 </v>
   <v>      -0.00193250      -0.22292820      -0.49920362 </v>
   <v>      -0.15689458      -1.01554115      -0.11247845 </v>
   <v>      -0.03398338      -0.00534486       0.10504549 </v>
   <v>      -0.07721004      -1.02149072      -0.06648667 </v>
   <v>      -0.09831509      -0.00891239      -0.16527048 </v>
   <v>       0.02865206      -0.01241659       0.00387210 </v>
   <v>       0.13470730       1.01655785      -0.20809558 </v>
   <v>      -0.10309417       1.05827578      -0.35471033 </v>
   <v>       0.30352686      -0.00546473      -0.23328419 </v>
   <v>       0.16467475       0.99493530      -0.13171049 </v>
   <v>       0.03596663      -0.00805355      -0.29657288 </v>
   <v>       0.11454264       1.03022179       0.25019973 </v>
   <v>       0.10895460      -0.00821287       0.14213335 </v>
   <v>      -0.04739478       0.03692844       0.00288160 </v>
   <v>      -0.17578422      -1.06303299       0.18971057 </v>
   <v>       0.09167595      -1.00002958       0.34636568 </v>
   <v>      -0.29218952      -0.03624185       0.46069626 </v>
   <v>       0.10287730       0.22946689      -0.19689503 </v>
   <v>       0.11389780      -0.19737883       0.01152986 </v>
   <v>       0.19107217       0.18728839       0.08259123 </v>
   <v>       0.02352904      -0.16695382       0.05659668 </v>
   <v>      -0.11484913       0.18739497       0.20358649 </v>
   <v>      -0.10418468      -0.21941767      -0.00547046 </v>
   <v>      -0.25271918       0.11830914       0.28994596 </v>
   <v>       0.04373625      -0.13708246       0.30610439 </v>
   <v>      -0.10418292       0.08064493       0.23683401 </v>
   <v>      -0.10261042      -0.05071857       0.01205778 </v>
   <v>      -0.18332891       0.18776429      -0.07518251 </v>
   <v>      -0.04320641      -0.14990673      -0.11066161 </v>
   <v>       0.11993704       0.09770981      -0.22522854 </v>
   <v>       0.08564020      -0.14880709      -0.00210561 </v>
   <v>       0.23899059       0.10408192      -0.31085418 </v>
   <v>      -0.01359824      -0.15787002      -0.27693818 </v>
   <v>      -0.06561682       0.02880773      -0.00191715 </v>
   <v>       0.08080749      -0.03217281      -0.15287248 </v>
   <v>       0.61572045       0.80695344      -0.53372464 </v>
   <v>      -1.26766505      -0.00458907       0.10389311 </v>
   <v>       0.65391323       0.83003163       0.59912192 </v>
   <v>      -0.64684071      -0.81571639       0.74274003 </v>
   <v>       0.47375979      -0.81502128       0.72009504 </v>
   <v>       0.15011724       0.02049330       0.08581695 </v>
   <v>       0.08539448      -0.08569403      -0.00120020 </v>
   <v>       0.06433892       0.04378299       1.23422338 </v>
   <v>      -0.48964694      -0.78760038      -0.57249592 </v>
   <v>       1.17359516       0.12992274      -1.27290898 </v>
   <v>      -0.71289180      -0.71058160       0.58825160 </v>
   <v>       0.57964658       0.87578523      -0.64614226 </v>
   <v>      -0.59343595       0.76276867      -0.81877920 </v>
   <v>      -0.15547427       0.01908069      -0.08807222 </v>
  </varray>
  <varray name="stress" >
   <v>      -7.86104865       0.12767040       0.71253473 </v>
   <v>       0.12767013     -14.44017470      -0.23835590 </v>
   <v>       0.71253467      -0.23835582      -8.99154689 </v>
  </varray>
  <energy>
   <i name="e_fr_energy">   -317.11498215 </i>
   <i name="e_wo_entrp">   -317.11498215 </i>
   <i name="e_0_energy">      0.00000000 </i>
  </energy>
  <time name="totalsc"> 1118.13 1128.37</time>
 </calculation>
 <calculation>
  <scstep>
   <time name="dav">   45.86   45.94</time>
   <time name="total">   46.41   46.53</time>
   <energy>
    <i name="alphaZ">   1079.87189334 </i>
    <i name="ewald"> -31101.59928840 </i>
    <i name="hartreedc"> -12953.80876253 </i>
    <i name="XCdc">   1491.94738422 </i>
    <i name="pawpsdc">  43947.62653684 </i>
    <i name="pawaedc"> -43508.63460703 </i>
    <i name="eentropy">      0.00000000 </i>
    <i name="bandstr">  -4429.90199192 </i>
    <i name="atom">  45173.57650906 </i>
    <i name="e_fr_energy">   -300.92232641 </i>
    <i name="e_wo_entrp">   -300.92232641 </i>
    <i name="e_0_energy">   -300.92232641 </i>
   </energy>
  </scstep>
  <scstep>
   <time name="dav">   53.08   53.39</time>
   <time name="total">   53.60   54.00</time>
   <energy>
    <i name="e_fr_energy">   -302.20772399 </i>
    <i name="e_wo_entrp">   -302.20772399 </i>
    <i name="e_0_energy">   -302.20772399 </i>
   </energy>
  </scstep>
  <scstep>
   <time name="dav">   69.22   69.65</time>
   <time name="total">   69.73   70.25</time>
   <energy>
    <i name="e_fr_energy">   -302.20333228 </i>
    <i name="e_wo_entrp">   -302.20333228 </i>
    <i name="e_0_energy">   -302.20333228 </i>
   </energy>
  </scstep>
  <scstep>
   <time name="dav">   57.43   57.95</time>
   <time name="total">   57.96   58.56</time>
   <energy>
    <i name="e_fr_energy">   -302.17214793 </i>
    <i name="e_wo_entrp">   -302.17214793 </i>
    <i name="e_0_energy">   -302.17214793 </i>
   </energy>
  </scstep>
  <scstep>
   <time name="dav">   56.06   56.58</time>
   <time name="total">   56.57   57.17</time>
   <energy>
    <i name="e_fr_energy">   -302.16410725 </i>
    <i name="e_wo_entrp">   -302.16410725 </i>
    <i name="e_0_energy">   -302.16410725 </i>
   </energy>
  </scstep>
  <scstep>
   <time name="dav">   56.00   56.28</time>
   <time name="total">   56.51   56.86</time>
   <energy>
    <i name="e_fr_energy">   -302.16462075 </i>
    <i name="e_wo_entrp">   -302.16462075 </i>
    <i name="e_0_energy">   -302.16462075 </i>
   </energy>
  </scstep>
  <scstep>
   <time name="dav">   68.08   68.73</time>
   <time name="total">   68.60   69.32</time>
   <energy>
    <i name="e_fr_energy">   -302.16451050 </i>
    <i name="e_wo_entrp">   -302.16451050 </i>
    <i name="e_0_energy">   -302.16451050 </i>
   </energy>
  </scstep>
  <scstep>
   <time name="dav">   58.89   58.99</time>
   <time name="total">   59.40   59.57</time>
   <energy>
    <i name="e_fr_energy">   -302.16444353 </i>
    <i name="e_wo_entrp">   -302.16444353 </i>
    <i name="e_0_energy">   -302.16444353 </i>
   </energy>
  </scstep>
  <scstep>
   <time name="dav">   57.17   57.68</time>
   <time name="total">   57.75   58.38</time>
   <energy>
    <i name="e_fr_energy">   -302.16446873 </i>
    <i name="e_wo_entrp">   -302.16446873 </i>
    <i name="e_0_energy">   -302.16446873 </i>
   </energy>
  </scstep>
  <scstep>
   <time name="dav">   56.54   56.87</time>
   <time name="total">   57.05   57.48</time>
   <energy>
    <i name="e_fr_energy">   -302.16446856 </i>
    <i name="e_wo_entrp">   -302.16446856 </i>
    <i name="e_0_energy">   -302.16446856 </i>
   </energy>
  </scstep>
  <scstep>
   <time name="dav">   48.85   49.16</time>
   <time name="total">   49.36   49.74</time>
   <energy>
    <i name="e_fr_energy">   -302.16447031 </i>
    <i name="e_wo_entrp">   -302.16447031 </i>
    <i name="e_0_energy">   -302.16447031 </i>
   </energy>
  </scstep>
  <scstep>
   <time name="dav">   49.17   49.69</time>
   <time name="total">   49.24   49.87</time>
   <energy>
    <i name="alphaZ">   1079.87189334 </i>
    <i name="ewald"> -31101.59928840 </i>
    <i name="hartreedc"> -12958.54750130 </i>
    <i name="XCdc">   1492.28100974 </i>
    <i name="pawpsdc">  43984.18567101 </i>
    <i name="pawaedc"> -43545.56644516 </i>
    <i name="eentropy">      0.00000000 </i>
    <i name="bandstr">  -4426.36631898 </i>
    <i name="atom">  45173.57650906 </i>
    <i name="e_fr_energy">   -302.16447068 </i>
    <i name="e_wo_entrp">   -302.16447068 </i>
    <i name="e_0_energy">   -302.16447068 </i>
   </energy>
  </scstep>
  <structure>
   <crystal>
    <varray name="basis" >
     <v>      11.17850000       0.00000000       0.00000000 </v>
     <v>       0.00000000       9.57460000       0.00000000 </v>
     <v>       0.00000000       0.00000000      11.18240000 </v>
    </varray>
    <i name="volume">   1196.84853820 </i>
    <varray name="rec_basis" >
     <v>       0.08945744       0.00000000       0.00000000 </v>
     <v>       0.00000000       0.10444301       0.00000000 </v>
     <v>       0.00000000       0.00000000       0.08942624 </v>
    </varray>
   </crystal>
   <varray name="positions" >
    <v>       0.37355684       0.00051138       0.43637866 </v>
    <v>       0.12432355       0.00050672       0.18782732 </v>
    <v>       0.37396199       0.00049859       0.18745352 </v>
    <v>       0.62318381       0.99984802       0.43671760 </v>
    <v>       0.62492800       0.99920426       0.18564209 </v>
    <v>       0.87534362      -0.00015291       0.18321905 </v>
    <v>       0.12323229       0.99984698       0.93914260 </v>
    <v>       0.37576531      -0.00015710       0.93743396 </v>
    <v>       0.37602026      -0.00014458       0.68631048 </v>
    <v>       0.62745283       0.99986288       0.93707356 </v>
    <v>       0.62493530       0.00050949       0.68814490 </v>
    <v>       0.87328307       0.00051425       0.69060267 </v>
    <v>       0.87887076      -0.00041659       0.43588723 </v>
    <v>       0.12460166       0.99871675       0.68471636 </v>
    <v>      -0.00054710       0.29007309       0.06232475 </v>
    <v>       0.24998334       0.70478307       0.06326318 </v>
    <v>       0.24953679       0.29004311       0.31253317 </v>
    <v>       0.49944571       0.70476509       0.31210700 </v>
    <v>       0.50025365       0.29512744       0.06282670 </v>
    <v>       0.75071135       0.70993204       0.06191224 </v>
    <v>       0.74942508       0.30052224       0.31128972 </v>
    <v>       0.00117992       0.70478247       0.31181357 </v>
    <v>       0.00084068       0.30020309       0.56224178 </v>
    <v>       0.25028522       0.70476942       0.56153054 </v>
    <v>       0.25036433       0.30038088       0.81389940 </v>
    <v>       0.50034021       0.70476862       0.81343319 </v>
    <v>       0.49992546       0.29537607       0.56282243 </v>
    <v>       0.74937137       0.69945379       0.56362844 </v>
    <v>       0.75026564       0.29015124       0.81431428 </v>
    <v>       0.99860901       0.70462739       0.81480752 </v>
    <v>       0.25049398       0.32792619       0.06201056 </v>
    <v>       0.00054154       0.67223549       0.06290974 </v>
    <v>       0.50077460       0.32771367       0.31321631 </v>
    <v>       0.25005154       0.67238879       0.31310417 </v>
    <v>       0.74955435       0.32771421       0.06373830 </v>
    <v>       0.49960037       0.67212444       0.06283640 </v>
    <v>       0.99885935       0.32736611       0.31411087 </v>
    <v>       0.75013875       0.67253930       0.31418058 </v>
    <v>       0.24960038       0.32717634       0.56388174 </v>
    <v>      -0.00039283       0.67297445       0.56291202 </v>
    <v>       0.49915881       0.32771607       0.81253565 </v>
    <v>       0.24976354       0.67247468       0.81238259 </v>
    <v>       0.75056761       0.32726232       0.56188833 </v>
    <v>       0.50041959       0.67248022       0.56285092 </v>
    <v>       0.00098140       0.32729443       0.81151893 </v>
    <v>       0.74989131       0.67243455       0.81166524 </v>
    <v>       0.49958682       0.07812515       0.06245173 </v>
    <v>       0.25021874       0.92185789       0.06180048 </v>
    <v>       0.25278724       0.08204592       0.31015743 </v>
    <v>      -0.00534082       0.92199688       0.31290821 </v>
    <v>       0.00269207       0.08216220       0.06504471 </v>
    <v>       0.74707845       0.91790993       0.06566430 </v>
    <v>       0.75217459       0.07387343       0.31556660 </v>
    <v>       0.50077786       0.92212326       0.31283023 </v>
    <v>       0.50023853       0.07754822       0.56245482 </v>
    <v>       0.25014767       0.92224061       0.56778464 </v>
    <v>       0.24801685       0.07401159       0.80999016 </v>
    <v>       0.00519484       0.92267463       0.80696847 </v>
    <v>       0.99679340       0.07439966       0.56499781 </v>
    <v>       0.75237156       0.92643274       0.55967244 </v>
    <v>       0.74756893       0.08182329       0.80892766 </v>
    <v>       0.49945903       0.92211614       0.81208004 </v>
   </varray>
  </structure>
  <varray name="forces" >
   <v>      -0.30690418       0.03656805      -0.01478923 </v>
   <v>      -0.05004290       0.07303635       0.22091333 </v>
   <v>      -0.05766041       0.03571835       0.05500835 </v>
   <v>      -0.18957934       0.00639055      -0.01508752 </v>
   <v>       0.07388317      -0.06626419      -0.07421404 </v>
   <v>       0.04035049      -0.03461408      -0.48705412 </v>
   <v>      -0.29583364       0.00031354       0.21364301 </v>
   <v>      -0.01036540      -0.03621983       0.01895177 </v>
   <v>       0.17747351      -0.03163202      -0.02126086 </v>
   <v>       0.28424735       0.00548044       0.03023431 </v>
   <v>       0.07711500       0.07777340       0.08026418 </v>
   <v>      -0.19191316       0.03399777       0.50106734 </v>
   <v>       0.32812104       0.00386713       0.10735861 </v>
   <v>       0.02111149      -0.01116722      -0.39485115 </v>
   <v>      -0.07449089       0.69977303      -0.09746160 </v>
   <v>       0.03257323      -0.04921156      -0.03329474 </v>
   <v>      -0.05644253       0.64896379      -0.00666983 </v>
   <v>       0.04418407       0.01512461      -0.08312992 </v>
   <v>      -0.02898773       0.04604109       0.00444981 </v>
   <v>       0.05254801      -0.66142719      -0.05153332 </v>
   <v>      -0.03913316      -0.21974983      -0.06412666 </v>
   <v>       0.06893140      -0.02042845      -0.03641044 </v>
   <v>       0.01965233      -0.14456254      -0.04606079 </v>
   <v>      -0.01318267       0.04548134      -0.06370635 </v>
   <v>       0.03642524      -0.20938502       0.09464239 </v>
   <v>      -0.03094760       0.01281789       0.05853354 </v>
   <v>       0.02980860      -0.07324512       0.00404320 </v>
   <v>      -0.04653162       0.27715830      -0.01811302 </v>
   <v>       0.07829158       0.58276341       0.11458495 </v>
   <v>      -0.06432311       0.15824684       0.15265025 </v>
   <v>       0.04510067       0.21403226      -0.09384674 </v>
   <v>       0.06595298      -0.11354921       0.01727914 </v>
   <v>       0.08146623       0.18637827       0.03963180 </v>
   <v>       0.01746514      -0.09414666       0.01787532 </v>
   <v>      -0.06414460       0.11040303       0.10357128 </v>
   <v>      -0.04876555      -0.20136089      -0.00626008 </v>
   <v>      -0.13034487       0.12478589       0.13701490 </v>
   <v>       0.03427711      -0.24349233       0.14165012 </v>
   <v>      -0.05133477       0.10253687       0.11193777 </v>
   <v>      -0.03210638      -0.14822950      -0.00093935 </v>
   <v>      -0.07641174       0.18536153      -0.02999385 </v>
   <v>      -0.03587384      -0.24569638      -0.05549432 </v>
   <v>       0.05651519       0.22197373      -0.09915393 </v>
   <v>       0.02709342      -0.15736447      -0.00376810 </v>
   <v>       0.12232707       0.13381423      -0.15469235 </v>
   <v>      -0.01086474      -0.09403345      -0.13122533 </v>
   <v>       0.00518711      -0.04353245      -0.00875660 </v>
   <v>       0.00288444       0.02709874      -0.00333127 </v>
   <v>       0.49228159      -0.81234253      -0.47630370 </v>
   <v>      -0.67061176      -0.13148010      -0.25667288 </v>
   <v>       0.51345705      -0.84420985       0.51411819 </v>
   <v>      -0.50502764       0.81126262       0.50435911 </v>
   <v>       0.28926713       0.47144551       0.26811713 </v>
   <v>      -0.01414050      -0.01518602       0.01229922 </v>
   <v>      -0.00325500       0.05168674      -0.00731478 </v>
   <v>       0.21443747      -0.14056764       0.69759758 </v>
   <v>      -0.28620720       0.44399074      -0.30398105 </v>
   <v>       0.67848223      -0.21401996      -0.71177847 </v>
   <v>      -0.42796025       0.47087309       0.43922332 </v>
   <v>       0.32226635      -0.49502096      -0.29141372 </v>
   <v>      -0.52102267      -0.75059934      -0.51585167 </v>
   <v>       0.00123218      -0.01242036      -0.00247817 </v>
  </varray>
  <varray name="stress" >
   <v>      -6.44774225      -0.25531537      -0.44329801 </v>
   <v>      -0.25531561     -10.52885925       0.26684116 </v>
   <v>      -0.44329812       0.26684109      -7.33854139 </v>
  </varray>
  <energy>
   <i name="e_fr_energy">   -317.97995480 </i>
   <i name="e_wo_entrp">   -317.97995480 </i>
   <i name="e_0_energy">      0.00000000 </i>
  </energy>
  <time name="totalsc">  768.10  774.21</time>
 </calculation>
 <calculation>
  <scstep>
   <time name="dav">   46.20   46.47</time>
   <time name="total">   46.71   46.98</time>
   <energy>
    <i name="alphaZ">   1079.87189334 </i>
    <i name="ewald"> -31099.35552522 </i>
    <i name="hartreedc"> -12959.95620039 </i>
    <i name="XCdc">   1492.31095739 </i>
    <i name="pawpsdc">  43984.11262531 </i>
    <i name="pawaedc"> -43545.49342705 </i>
    <i name="eentropy">      0.00000000 </i>
    <i name="bandstr">  -4427.22415056 </i>
    <i name="atom">  45173.57650906 </i>
    <i name="e_fr_energy">   -302.15731809 </i>
    <i name="e_wo_entrp">   -302.15731809 </i>
    <i name="e_0_energy">   -302.15731809 </i>
   </energy>
  </scstep>
  <scstep>
   <time name="dav">   50.82   51.25</time>
   <time name="total">   51.33   51.84</time>
   <energy>
    <i name="e_fr_energy">   -302.17208048 </i>
    <i name="e_wo_entrp">   -302.17208048 </i>
    <i name="e_0_energy">   -302.17208048 </i>
   </energy>
  </scstep>
  <scstep>
   <time name="dav">   71.02   71.70</time>
   <time name="total">   71.54   72.32</time>
   <energy>
    <i name="e_fr_energy">   -302.17202410 </i>
    <i name="e_wo_entrp">   -302.17202410 </i>
    <i name="e_0_energy">   -302.17202410 </i>
   </energy>
  </scstep>
  <scstep>
   <time name="dav">   57.21   57.82</time>
   <time name="total">   57.72   58.44</time>
   <energy>
    <i name="e_fr_energy">   -302.17158213 </i>
    <i name="e_wo_entrp">   -302.17158213 </i>
    <i name="e_0_energy">   -302.17158213 </i>
   </energy>
  </scstep>
  <scstep>
   <time name="dav">   57.30   58.04</time>
   <time name="total">   57.80   58.62</time>
   <energy>
    <i name="e_fr_energy">   -302.17152087 </i>
    <i name="e_wo_entrp">   -302.17152087 </i>
    <i name="e_0_energy">   -302.17152087 </i>
   </energy>
  </scstep>
  <scstep>
   <time name="dav">   56.37   56.46</time>
   <time name="total">   56.89   57.07</time>
   <energy>
    <i name="e_fr_energy">   -302.17152380 </i>
    <i name="e_wo_entrp">   -302.17152380 </i>
    <i name="e_0_energy">   -302.17152380 </i>
   </energy>
  </scstep>
  <scstep>
   <time name="dav">   66.76   67.06</time>
   <time name="total">   67.27   67.64</time>
   <energy>
    <i name="e_fr_energy">   -302.17152172 </i>
    <i name="e_wo_entrp">   -302.17152172 </i>
    <i name="e_0_energy">   -302.17152172 </i>
   </energy>
  </scstep>
  <scstep>
   <time name="dav">   52.51   53.07</time>
   <time name="total">   53.01   53.66</time>
   <energy>
    <i name="e_fr_energy">   -302.17152046 </i>
    <i name="e_wo_entrp">   -302.17152046 </i>
    <i name="e_0_energy">   -302.17152046 </i>
   </energy>
  </scstep>
  <scstep>
   <time name="dav">   45.31   45.90</time>
   <time name="total">   45.38   46.10</time>
   <energy>
    <i name="alphaZ">   1079.87189334 </i>
    <i name="ewald"> -31099.35552522 </i>
    <i name="hartreedc"> -12960.44128995 </i>
    <i name="XCdc">   1492.34422055 </i>
    <i name="pawpsdc">  43992.45162790 </i>
    <i name="pawaedc"> -43553.94760896 </i>
    <i name="eentropy">      0.00000000 </i>
    <i name="bandstr">  -4426.67134732 </i>
    <i name="atom">  45173.57650906 </i>
    <i name="e_fr_energy">   -302.17152059 </i>
    <i name="e_wo_entrp">   -302.17152059 </i>
    <i name="e_0_energy">   -302.17152059 </i>
   </energy>
  </scstep>
  <structure>
   <crystal>
    <varray name="basis" >
     <v>      11.17850000       0.00000000       0.00000000 </v>
     <v>       0.00000000       9.57460000       0.00000000 </v>
     <v>       0.00000000       0.00000000      11.18240000 </v>
    </varray>
    <i name="volume">   1196.84853820 </i>
    <varray name="rec_basis" >
     <v>       0.08945744       0.00000000       0.00000000 </v>
     <v>       0.00000000       0.10444301       0.00000000 </v>
     <v>       0.00000000       0.00000000       0.08942624 </v>
    </varray>
   </crystal>
   <varray name="positions" >
    <v>       0.37334601       0.00055064       0.43632215 </v>
    <v>       0.12429060       0.00058340       0.18793742 </v>
    <v>       0.37388746       0.00053639       0.18752063 </v>
    <v>       0.62293007       0.99984894       0.43670008 </v>
    <v>       0.62496457       0.99913115       0.18550087 </v>
    <v>       0.87542799      -0.00019004       0.18279915 </v>
    <v>       0.12298413       0.99984779       0.93940397 </v>
    <v>       0.37580847      -0.00019472       0.93749882 </v>
    <v>       0.37618245      -0.00018076       0.68624613 </v>
    <v>       0.62769008       0.99986551       0.93709697 </v>
    <v>       0.62497271       0.00058649       0.68829153 </v>
    <v>       0.87313045       0.00055384       0.69103197 </v>
    <v>       0.87927108      -0.00048405       0.43577420 </v>
    <v>       0.12460070       0.99858757       0.68446866 </v>
    <v>      -0.00062498       0.28948459       0.06226894 </v>
    <v>       0.24996647       0.70477997       0.06331530 </v>
    <v>       0.24949846       0.28945116       0.31250018 </v>
    <v>       0.49939691       0.70475993       0.31202499 </v>
    <v>       0.50026787       0.29512024       0.06282863 </v>
    <v>       0.75077821       0.71052112       0.06180899 </v>
    <v>       0.74937391       0.30113550       0.31111373 </v>
    <v>       0.00133057       0.70477930       0.31169783 </v>
    <v>       0.00092242       0.30077965       0.56217643 </v>
    <v>       0.25030307       0.70476475       0.56138339 </v>
    <v>       0.25042118       0.30097789       0.81402354 </v>
    <v>       0.50039429       0.70476386       0.81350371 </v>
    <v>       0.49990194       0.29539747       0.56282386 </v>
    <v>       0.74928412       0.69883777       0.56372257 </v>
    <v>       0.75031115       0.28957173       0.81448613 </v>
    <v>       0.99846398       0.70460639       0.81503610 </v>
    <v>       0.25054505       0.32805917       0.06191287 </v>
    <v>       0.00059808       0.67212111       0.06291546 </v>
    <v>       0.50086944       0.32782221       0.31325729 </v>
    <v>       0.25006322       0.67229204       0.31313225 </v>
    <v>       0.74949734       0.32782280       0.06383932 </v>
    <v>       0.49954866       0.67199729       0.06283369 </v>
    <v>       0.99873391       0.32743467       0.31425474 </v>
    <v>       0.75016046       0.67245986       0.31433246 </v>
    <v>       0.24954867       0.32722307       0.56399925 </v>
    <v>      -0.00044376       0.67294506       0.56291800 </v>
    <v>       0.49906782       0.32782488       0.81249835 </v>
    <v>       0.24974209       0.67238781       0.81232768 </v>
    <v>       0.75062714       0.32731894       0.56177658 </v>
    <v>       0.50046210       0.67239399       0.56284987 </v>
    <v>       0.00110003       0.32735474       0.81136469 </v>
    <v>       0.74988457       0.67234307       0.81152784 </v>
    <v>       0.49955425       0.07814184       0.06245078 </v>
    <v>       0.25025885       0.92183925       0.06172463 </v>
    <v>       0.25309285       0.08251355       0.30989261 </v>
    <v>      -0.00597002       0.92199422       0.31295976 </v>
    <v>       0.00301664       0.08264320       0.06534198 </v>
    <v>       0.74675740       0.91743722       0.06603283 </v>
    <v>       0.75240974       0.07340113       0.31592390 </v>
    <v>       0.50085237       0.92213513       0.31287281 </v>
    <v>       0.50028092       0.07749856       0.56245423 </v>
    <v>       0.25017960       0.92226598       0.56839703 </v>
    <v>       0.24777381       0.07355518       0.80970610 </v>
    <v>       0.00577735       0.92274992       0.80633688 </v>
    <v>       0.99643956       0.07398788       0.56528969 </v>
    <v>       0.75265927       0.92694025       0.55935184 </v>
    <v>       0.74727438       0.08226531       0.80852140 </v>
    <v>       0.49938186       0.92212720       0.81203634 </v>
   </varray>
  </structure>
  <varray name="forces" >
   <v>      -0.29256766       0.03277283      -0.00316142 </v>
   <v>      -0.04791332       0.06590458       0.22031884 </v>
   <v>      -0.04646476       0.03184878       0.04507356 </v>
   <v>      -0.15364225       0.00695764      -0.01267492 </v>
   <v>       0.07237870      -0.05901891      -0.04964966 </v>
   <v>       0.02611571      -0.03184126      -0.44574966 </v>
   <v>      -0.27173961      -0.00095678       0.17829013 </v>
   <v>      -0.02117004      -0.03327450       0.00652856 </v>
   <v>       0.16071426      -0.02819086      -0.00860949 </v>
   <v>       0.26117713       0.00570753       0.02832181 </v>
   <v>       0.07576448       0.07117011       0.05501351 </v>
   <v>      -0.17793939       0.02931880       0.45929452 </v>
   <v>       0.26929167       0.02160084       0.15280712 </v>
   <v>       0.02381999       0.01693137      -0.38632508 </v>
   <v>      -0.06923015       0.94854391      -0.09985308 </v>
   <v>       0.04032549      -0.05473945      -0.04896882 </v>
   <v>      -0.05812874       0.89124196       0.00280163 </v>
   <v>       0.06057312       0.01746040      -0.07339107 </v>
   <v>      -0.03553502       0.05350642       0.00455312 </v>
   <v>       0.04711881      -0.90345712      -0.03882851 </v>
   <v>      -0.03108846      -0.33335682      -0.02930733 </v>
   <v>       0.04176418      -0.02095634      -0.01359559 </v>
   <v>       0.00257489      -0.24767213      -0.03524227 </v>
   <v>      -0.01867452       0.05304106      -0.03625364 </v>
   <v>       0.02654856      -0.32116271       0.07528610 </v>
   <v>      -0.04681337       0.01485174       0.04875269 </v>
   <v>       0.03832954      -0.08507766       0.00419246 </v>
   <v>      -0.03107552       0.39613497      -0.04324254 </v>
   <v>       0.08019876       0.80879003       0.09365174 </v>
   <v>      -0.03717643       0.18256145       0.11582620 </v>
   <v>       0.03833408       0.21180592      -0.08102715 </v>
   <v>       0.06043665      -0.10317739       0.01853216 </v>
   <v>       0.06856986       0.18599626       0.03469225 </v>
   <v>       0.01696136      -0.08568336       0.01304080 </v>
   <v>      -0.05846509       0.10058197       0.09124004 </v>
   <v>      -0.04225528      -0.19888596      -0.00628177 </v>
   <v>      -0.11613115       0.12484194       0.11885677 </v>
   <v>       0.03304370      -0.25489867       0.12270638 </v>
   <v>      -0.04494258       0.10449598       0.09760134 </v>
   <v>      -0.02362935      -0.15884946      -0.00280991 </v>
   <v>      -0.06356576       0.18485187      -0.02480081 </v>
   <v>      -0.03499545      -0.25629862      -0.04887208 </v>
   <v>       0.04897960       0.23513823      -0.08490788 </v>
   <v>       0.02004594      -0.15813772      -0.00388004 </v>
   <v>       0.10870086       0.13612386      -0.13656450 </v>
   <v>      -0.01069391      -0.08620805      -0.11374429 </v>
   <v>       0.01350563      -0.05245509      -0.00947773 </v>
   <v>      -0.00632575       0.03449475       0.01389449 </v>
   <v>       0.48243795      -1.04591297      -0.47265459 </v>
   <v>      -0.59589951      -0.15259234      -0.30604929 </v>
   <v>       0.50162144      -1.08573006       0.50828765 </v>
   <v>      -0.49214098       1.04473267       0.48168873 </v>
   <v>       0.26561479       0.58880727       0.21340722 </v>
   <v>      -0.03283980      -0.01882899       0.00368135 </v>
   <v>      -0.01326656       0.06660389      -0.00793107 </v>
   <v>       0.23488039      -0.16588225       0.63285694 </v>
   <v>      -0.26097173       0.55710420      -0.27075159 </v>
   <v>       0.61484102      -0.25984895      -0.63969324 </v>
   <v>      -0.39338640       0.58073916       0.42132352 </v>
   <v>       0.29047574      -0.61993982      -0.24861899 </v>
   <v>      -0.51567509      -0.96601901      -0.48702442 </v>
   <v>       0.01919934      -0.01560910       0.00742075 </v>
  </varray>
  <varray name="stress" >
   <v>      -6.24337336      -0.34055322      -0.57163479 </v>
   <v>      -0.34055303      -9.39174607       0.37308780 </v>
   <v>      -0.57163501       0.37308747      -7.09543573 </v>
  </varray>
  <energy>
   <i name="e_fr_energy">   -317.98651905 </i>
   <i name="e_wo_entrp">   -317.98651905 </i>
   <i name="e_0_energy">      0.00000000 </i>
  </energy>
  <time name="totalsc">  593.15  599.45</time>
 </calculation>
 <calculation>
  <scstep>
   <time name="dav">   45.02   45.91</time>
   <time name="total">   45.53   46.43</time>
   <energy>
    <i name="alphaZ">   1079.87189334 </i>
    <i name="ewald"> -31138.42188340 </i>
    <i name="hartreedc"> -12922.59992431 </i>
    <i name="XCdc">   1492.10370795 </i>
    <i name="pawpsdc">  43992.38508003 </i>
    <i name="pawaedc"> -43553.88042200 </i>
    <i name="eentropy">      0.00000000 </i>
    <i name="bandstr">  -4424.98727085 </i>
    <i name="atom">  45173.57650906 </i>
    <i name="e_fr_energy">   -301.95231017 </i>
    <i name="e_wo_entrp">   -301.95231017 </i>
    <i name="e_0_energy">   -301.95231017 </i>
   </energy>
  </scstep>
  <scstep>
   <time name="dav">   52.21   52.76</time>
   <time name="total">   52.73   53.43</time>
   <energy>
    <i name="e_fr_energy">   -302.68367711 </i>
    <i name="e_wo_entrp">   -302.68367711 </i>
    <i name="e_0_energy">   -302.68367711 </i>
   </energy>
  </scstep>
  <scstep>
   <time name="dav">   71.23   71.69</time>
   <time name="total">   71.74   72.29</time>
   <energy>
    <i name="e_fr_energy">   -302.67996521 </i>
    <i name="e_wo_entrp">   -302.67996521 </i>
    <i name="e_0_energy">   -302.67996521 </i>
   </energy>
  </scstep>
  <scstep>
   <time name="dav">   55.19   55.39</time>
   <time name="total">   55.73   56.00</time>
   <energy>
    <i name="e_fr_energy">   -302.66598856 </i>
    <i name="e_wo_entrp">   -302.66598856 </i>
    <i name="e_0_energy">   -302.66598856 </i>
   </energy>
  </scstep>
  <scstep>
   <time name="dav">   54.64   55.04</time>
   <time name="total">   55.14   55.64</time>
   <energy>
    <i name="e_fr_energy">   -302.66037700 </i>
    <i name="e_wo_entrp">   -302.66037700 </i>
    <i name="e_0_energy">   -302.66037700 </i>
   </energy>
  </scstep>
  <scstep>
   <time name="dav">   55.84   56.24</time>
   <time name="total">   56.35   56.85</time>
   <energy>
    <i name="e_fr_energy">   -302.66095329 </i>
    <i name="e_wo_entrp">   -302.66095329 </i>
    <i name="e_0_energy">   -302.66095329 </i>
   </energy>
  </scstep>
  <scstep>
   <time name="dav">   64.27   64.97</time>
   <time name="total">   64.77   65.55</time>
   <energy>
    <i name="e_fr_energy">   -302.66093282 </i>
    <i name="e_wo_entrp">   -302.66093282 </i>
    <i name="e_0_energy">   -302.66093282 </i>
   </energy>
  </scstep>
  <scstep>
   <time name="dav">   63.38   63.61</time>
   <time name="total">   63.89   64.20</time>
   <energy>
    <i name="e_fr_energy">   -302.66089814 </i>
    <i name="e_wo_entrp">   -302.66089814 </i>
    <i name="e_0_energy">   -302.66089814 </i>
   </energy>
  </scstep>
  <scstep>
   <time name="dav">   52.57   53.13</time>
   <time name="total">   53.08   53.74</time>
   <energy>
    <i name="e_fr_energy">   -302.66090336 </i>
    <i name="e_wo_entrp">   -302.66090336 </i>
    <i name="e_0_energy">   -302.66090336 </i>
   </energy>
  </scstep>
  <scstep>
   <time name="dav">   55.07   55.64</time>
   <time name="total">   55.58   56.26</time>
   <energy>
    <i name="e_fr_energy">   -302.66090624 </i>
    <i name="e_wo_entrp">   -302.66090624 </i>
    <i name="e_0_energy">   -302.66090624 </i>
   </energy>
  </scstep>
  <scstep>
   <time name="dav">   45.89   46.33</time>
   <time name="total">   45.96   46.50</time>
   <energy>
    <i name="alphaZ">   1079.87189334 </i>
    <i name="ewald"> -31138.42188340 </i>
    <i name="hartreedc"> -12923.16803735 </i>
    <i name="XCdc">   1492.12340504 </i>
    <i name="pawpsdc">  43918.33983663 </i>
    <i name="pawaedc"> -43478.47636639 </i>
    <i name="eentropy">      0.00000000 </i>
    <i name="bandstr">  -4426.50626368 </i>
    <i name="atom">  45173.57650906 </i>
    <i name="e_fr_energy">   -302.66090674 </i>
    <i name="e_wo_entrp">   -302.66090674 </i>
    <i name="e_0_energy">   -302.66090674 </i>
   </energy>
  </scstep>
  <structure>
   <crystal>
    <varray name="basis" >
     <v>      11.17850000       0.00000000       0.00000000 </v>
     <v>       0.00000000       9.57460000       0.00000000 </v>
     <v>       0.00000000       0.00000000      11.18240000 </v>
    </varray>
    <i name="volume">   1196.84853820 </i>
    <varray name="rec_basis" >
     <v>       0.08945744       0.00000000       0.00000000 </v>
     <v>       0.00000000       0.10444301       0.00000000 </v>
     <v>       0.00000000       0.00000000       0.08942624 </v>
    </varray>
   </crystal>
   <varray name="positions" >
    <v>       0.37114920       0.00088813       0.43606559 </v>
    <v>       0.12393763       0.00125230       0.18938247 </v>
    <v>       0.37336236       0.00086280       0.18800767 </v>
    <v>       0.62116241       0.99988876       0.43656889 </v>
    <v>       0.62544114       0.99851303       0.18467545 </v>
    <v>       0.87590552      -0.00051361       0.17902917 </v>
    <v>       0.12071902       0.99984630       0.94131297 </v>
    <v>       0.37590032      -0.00052774       0.93780609 </v>
    <v>       0.37758833      -0.00048139       0.68593186 </v>
    <v>       0.62986171       0.99990623       0.93732247 </v>
    <v>       0.62546783       0.00128391       0.68916383 </v>
    <v>       0.87168967       0.00087494       0.69490207 </v>
    <v>       0.88217866      -0.00066234       0.43596335 </v>
    <v>       0.12470175       0.99812022       0.68170027 </v>
    <v>      -0.00126495       0.29184732       0.06158865 </v>
    <v>       0.25007209       0.70448452       0.06332295 </v>
    <v>       0.24907730       0.29150373       0.31237091 </v>
    <v>       0.49945483       0.70482776       0.31134904 </v>
    <v>       0.50017204       0.29536515       0.06285697 </v>
    <v>       0.75127329       0.70839332       0.06119435 </v>
    <v>       0.74901697       0.30205007       0.31022879 </v>
    <v>       0.00216175       0.70465768       0.31114089 </v>
    <v>       0.00128469       0.30197830       0.56174032 </v>
    <v>       0.25029727       0.70501812       0.56059163 </v>
    <v>       0.25078247       0.30188552       0.81488878 </v>
    <v>       0.50041979       0.70481998       0.81402164 </v>
    <v>       0.49997016       0.29505081       0.56284850 </v>
    <v>       0.74877235       0.69823495       0.56393584 </v>
    <v>       0.75086057       0.29125269       0.81563728 </v>
    <v>       0.99767722       0.70545724       0.81652865 </v>
    <v>       0.25093351       0.32972181       0.06113584 </v>
    <v>       0.00110761       0.67109822       0.06302181 </v>
    <v>       0.50157933       0.32924688       0.31358634 </v>
    <v>       0.25018824       0.67143502       0.31331036 </v>
    <v>       0.74899449       0.32880747       0.06467567 </v>
    <v>       0.49914010       0.67042625       0.06279431 </v>
    <v>       0.99768268       0.32837251       0.31539693 </v>
    <v>       0.75039954       0.67080494       0.31552607 </v>
    <v>       0.24912825       0.32796233       0.56493450 </v>
    <v>      -0.00076674       0.67200009       0.56293129 </v>
    <v>       0.49839652       0.32924483       0.81222874 </v>
    <v>       0.24949552       0.67069377       0.81187626 </v>
    <v>       0.75109896       0.32877406       0.56092207 </v>
    <v>       0.50073310       0.67120865       0.56282826 </v>
    <v>       0.00208920       0.32831534       0.81009980 </v>
    <v>       0.74980838       0.67150595       0.81043591 </v>
    <v>       0.49947405       0.07794313       0.06240487 </v>
    <v>       0.25040311       0.92193701       0.06146031 </v>
    <v>       0.25653484       0.07912999       0.30666967 </v>
    <v>      -0.01130217       0.92119626       0.31183035 </v>
    <v>       0.00662470       0.07911182       0.06886148 </v>
    <v>       0.74320626       0.92079290       0.06974088 </v>
    <v>       0.75459195       0.07440846       0.31839968 </v>
    <v>       0.50102727       0.92208906       0.31307186 </v>
    <v>       0.50040432       0.07762868       0.56241667 </v>
    <v>       0.25135368       0.92151986       0.57381918 </v>
    <v>       0.24557824       0.07446732       0.80729165 </v>
    <v>       0.01099267       0.92173376       0.80080215 </v>
    <v>       0.99318367       0.07521346       0.56840223 </v>
    <v>       0.75517688       0.92592362       0.55687819 </v>
    <v>       0.74373314       0.07918364       0.80462783 </v>
    <v>       0.49913532       0.92209421       0.81188148 </v>
   </varray>
  </structure>
  <varray name="forces" >
   <v>      -0.21806330       0.03687931      -0.01392289 </v>
   <v>      -0.00217959       0.07548985       0.19837486 </v>
   <v>      -0.00437745       0.02511618      -0.00213464 </v>
   <v>       0.01152706       0.00554120      -0.01999998 </v>
   <v>       0.03175353      -0.04598243       0.03729582 </v>
   <v>      -0.02481004      -0.03360431      -0.28208782 </v>
   <v>      -0.16408342       0.01104626       0.06185491 </v>
   <v>      -0.04581666      -0.03202584      -0.01341198 </v>
   <v>       0.09135468      -0.02038413       0.06740803 </v>
   <v>       0.18526746       0.00188067       0.03039881 </v>
   <v>       0.03455858       0.05331941      -0.02730980 </v>
   <v>      -0.12753599       0.02617560       0.28099228 </v>
   <v>      -0.06936458       0.10545155       0.28691817 </v>
   <v>       0.06552277       0.20073434      -0.29162523 </v>
   <v>       0.08657062      -0.18198522       0.00042857 </v>
   <v>       0.09862844       0.06211955      -0.13654908 </v>
   <v>       0.03748025      -0.12813475      -0.02649999 </v>
   <v>       0.15288010       0.04640260       0.00046368 </v>
   <v>      -0.09608439      -0.07921695       0.00796822 </v>
   <v>      -0.10203475       0.15010429       0.14705374 </v>
   <v>       0.01098827      -0.50410790       0.22136978 </v>
   <v>      -0.14802800      -0.04262543       0.12357463 </v>
   <v>      -0.11034106      -0.28290760       0.02897602 </v>
   <v>      -0.02596975      -0.08246933       0.14885496 </v>
   <v>      -0.01432878      -0.46731657      -0.05456311 </v>
   <v>      -0.14390535       0.03785754      -0.02740363 </v>
   <v>       0.08690687      -0.03317599       0.00515186 </v>
   <v>       0.06108773       0.49964836      -0.20764052 </v>
   <v>      -0.01966077      -0.08682320      -0.16476151 </v>
   <v>       0.15705967       0.08659070      -0.15382655 </v>
   <v>      -0.04484364       0.23111324       0.05133134 </v>
   <v>      -0.02296799      -0.10116892       0.02112398 </v>
   <v>      -0.05871692       0.18856215      -0.00424565 </v>
   <v>       0.01562733      -0.07430714      -0.02435913 </v>
   <v>       0.03015278       0.09816827      -0.06364416 </v>
   <v>       0.03587009      -0.21282387      -0.01017143 </v>
   <v>       0.03288281       0.13226129      -0.04996206 </v>
   <v>       0.02079461      -0.30884861      -0.05073401 </v>
   <v>       0.00133290       0.09646848      -0.04326210 </v>
   <v>       0.03848088      -0.18084193      -0.01261500 </v>
   <v>       0.06434351       0.18586545       0.01930917 </v>
   <v>      -0.02824125      -0.29956105       0.00489222 </v>
   <v>      -0.00033821       0.27284278       0.04350974 </v>
   <v>      -0.03666189      -0.14830989      -0.00430638 </v>
   <v>      -0.03927751       0.14757821       0.04744618 </v>
   <v>      -0.00761425      -0.07414777       0.06980082 </v>
   <v>      -0.00421873       0.09379181      -0.02389101 </v>
   <v>       0.00935462      -0.11652546      -0.01298024 </v>
   <v>       0.27860555       0.03854684      -0.27521026 </v>
   <v>      -0.15686320      -0.24595549      -0.39665587 </v>
   <v>       0.30926790       0.11116296       0.30149166 </v>
   <v>      -0.28547613      -0.08975296       0.23952772 </v>
   <v>       0.09537476       0.76907733       0.05588021 </v>
   <v>      -0.03324461      -0.05881823      -0.00356047 </v>
   <v>      -0.02945369       0.01768934      -0.01402980 </v>
   <v>       0.31919176      -0.14593905       0.19117632 </v>
   <v>      -0.07970077       0.70657793      -0.08156527 </v>
   <v>       0.16172763      -0.29575556      -0.16121029 </v>
   <v>      -0.16512859       0.62772627       0.22778307 </v>
   <v>       0.10928308      -0.72962891      -0.07395965 </v>
   <v>      -0.33124690       0.01068254      -0.22569683 </v>
   <v>       0.00670193      -0.04932779       0.03343955 </v>
  </varray>
  <varray name="stress" >
   <v>      -4.84597245      -0.38917477      -1.35212209 </v>
   <v>      -0.38917453     -20.36801505       0.60901705 </v>
   <v>      -1.35212190       0.60901695      -5.46453951 </v>
  </varray>
  <energy>
   <i name="e_fr_energy">   -318.47684321 </i>
   <i name="e_wo_entrp">   -318.47684321 </i>
   <i name="e_0_energy">      0.00000000 </i>
  </energy>
  <time name="totalsc">  706.43  713.60</time>
 </calculation>
 <calculation>
  <scstep>
   <time name="dav">   45.25   45.52</time>
   <time name="total">   45.76   46.04</time>
   <energy>
    <i name="alphaZ">   1079.87189334 </i>
    <i name="ewald"> -31155.60811705 </i>
    <i name="hartreedc"> -12906.58643598 </i>
    <i name="XCdc">   1492.02887451 </i>
    <i name="pawpsdc">  43918.37738689 </i>
    <i name="pawaedc"> -43478.51398928 </i>
    <i name="eentropy">      0.00000000 </i>
    <i name="bandstr">  -4425.69955803 </i>
    <i name="atom">  45173.57650906 </i>
    <i name="e_fr_energy">   -302.55343654 </i>
    <i name="e_wo_entrp">   -302.55343654 </i>
    <i name="e_0_energy">   -302.55343654 </i>
   </energy>
  </scstep>
  <scstep>
   <time name="dav">   52.09   52.34</time>
   <time name="total">   52.60   52.96</time>
   <energy>
    <i name="e_fr_energy">   -302.71517424 </i>
    <i name="e_wo_entrp">   -302.71517424 </i>
    <i name="e_0_energy">   -302.71517424 </i>
   </energy>
  </scstep>
  <scstep>
   <time name="dav">   70.59   71.32</time>
   <time name="total">   71.09   71.92</time>
   <energy>
    <i name="e_fr_energy">   -302.71456378 </i>
    <i name="e_wo_entrp">   -302.71456378 </i>
    <i name="e_0_energy">   -302.71456378 </i>
   </energy>
  </scstep>
  <scstep>
   <time name="dav">   54.34   54.78</time>
   <time name="total">   54.85   55.40</time>
   <energy>
    <i name="e_fr_energy">   -302.71095719 </i>
    <i name="e_wo_entrp">   -302.71095719 </i>
    <i name="e_0_energy">   -302.71095719 </i>
   </energy>
  </scstep>
  <scstep>
   <time name="dav">   55.66   56.22</time>
   <time name="total">   56.17   56.80</time>
   <energy>
    <i name="e_fr_energy">   -302.71008532 </i>
    <i name="e_wo_entrp">   -302.71008532 </i>
    <i name="e_0_energy">   -302.71008532 </i>
   </energy>
  </scstep>
  <scstep>
   <time name="dav">   58.27   58.86</time>
   <time name="total">   58.80   59.48</time>
   <energy>
    <i name="e_fr_energy">   -302.71019490 </i>
    <i name="e_wo_entrp">   -302.71019490 </i>
    <i name="e_0_energy">   -302.71019490 </i>
   </energy>
  </scstep>
  <scstep>
   <time name="dav">   68.99   69.69</time>
   <time name="total">   69.51   70.31</time>
   <energy>
    <i name="e_fr_energy">   -302.71018895 </i>
    <i name="e_wo_entrp">   -302.71018895 </i>
    <i name="e_0_energy">   -302.71018895 </i>
   </energy>
  </scstep>
  <scstep>
   <time name="dav">   55.87   56.13</time>
   <time name="total">   56.39   56.74</time>
   <energy>
    <i name="e_fr_energy">   -302.71018118 </i>
    <i name="e_wo_entrp">   -302.71018118 </i>
[...]
       <r>   12.3762    0.0000 </r>
       <r>   12.4191    0.0000 </r>
       <r>   12.4424    0.0000 </r>
       <r>   12.5240    0.0000 </r>
      </set>
     </set>
    </set>
   </array>
  </eigenvalues>
  <separator name="orbital magnetization" >
   <v name="MAGDIPOLOUT">      0.00000000      0.00000000      0.00000000</v>
  </separator>
  <dos>
   <i name="efermi">      4.32915491 </i>
   <total>
    <array>
     <dimension dim="1">gridpoints</dimension>
     <dimension dim="2">spin</dimension>
     <field>energy</field>
     <field>total</field>
     <field>integrated</field>
     <set>
      <set comment="spin 1">
       <r>   -42.4901     0.0000     0.0000 </r>
       <r>   -42.2962     0.0000     0.0000 </r>
       <r>   -42.1023     0.0000     0.0000 </r>
       <r>   -41.9085     0.0000     0.0000 </r>
       <r>   -41.7146     0.0000     0.0000 </r>
       <r>   -41.5207     0.0000     0.0000 </r>
       <r>   -41.3269     0.0000     0.0000 </r>
       <r>   -41.1330     0.0000     0.0000 </r>
       <r>   -40.9391     0.0000     0.0000 </r>
       <r>   -40.7453     0.0000     0.0000 </r>
       <r>   -40.5514     0.0000     0.0000 </r>
       <r>   -40.3575     0.0000     0.0000 </r>
       <r>   -40.1636     0.0000     0.0000 </r>
       <r>   -39.9698     0.0000     0.0000 </r>
       <r>   -39.7759     0.0000     6.0000 </r>
       <r>   -39.5820     0.0000    18.0000 </r>
       <r>   -39.3882     0.0000    24.0000 </r>
       <r>   -39.1943     0.0000    24.0000 </r>
       <r>   -39.0004     0.0000    24.0000 </r>
       <r>   -38.8066     0.0000    24.0000 </r>
       <r>   -38.6127     0.0000    24.0000 </r>
       <r>   -38.4188     0.0000    24.0000 </r>
       <r>   -38.2250     0.0000    24.0000 </r>
       <r>   -38.0311     0.0000    24.0000 </r>
       <r>   -37.8372     0.0000    24.0000 </r>
       <r>   -37.6434     0.0000    24.0000 </r>
       <r>   -37.4495     0.0000    24.0000 </r>
       <r>   -37.2556     0.0000    24.0000 </r>
       <r>   -37.0618     0.0000    24.0000 </r>
       <r>   -36.8679     0.0000    24.0000 </r>
       <r>   -36.6740     0.0000    24.0000 </r>
       <r>   -36.4801     0.0000    24.0000 </r>
       <r>   -36.2863     0.0000    24.0000 </r>
       <r>   -36.0924     0.0000    24.0000 </r>
       <r>   -35.8985     0.0000    24.0000 </r>
       <r>   -35.7047     0.0000    24.0000 </r>
       <r>   -35.5108     0.0000    24.0000 </r>
       <r>   -35.3169     0.0000    24.0000 </r>
       <r>   -35.1231     0.0000    24.0000 </r>
       <r>   -34.9292     0.0000    24.0000 </r>
       <r>   -34.7353     0.0000    24.0000 </r>
       <r>   -34.5415     0.0000    24.0000 </r>
       <r>   -34.3476     0.0000    24.0000 </r>
       <r>   -34.1537     0.0000    24.0000 </r>
       <r>   -33.9599     0.0000    24.0000 </r>
       <r>   -33.7660     0.0000    24.0000 </r>
       <r>   -33.5721     0.0000    24.0000 </r>
       <r>   -33.3783     0.0000    24.0000 </r>
       <r>   -33.1844     0.0000    24.0000 </r>
       <r>   -32.9905     0.0000    24.0000 </r>
       <r>   -32.7966     0.0000    24.0000 </r>
       <r>   -32.6028     0.0000    24.0000 </r>
       <r>   -32.4089     0.0000    24.0000 </r>
       <r>   -32.2150     0.0000    24.0000 </r>
       <r>   -32.0212     0.0000    24.0000 </r>
       <r>   -31.8273     0.0000    24.0000 </r>
       <r>   -31.6334     0.0000    24.0000 </r>
       <r>   -31.4396     0.0000    24.0000 </r>
       <r>   -31.2457     0.0000    24.0000 </r>
       <r>   -31.0518     0.0000    24.0000 </r>
       <r>   -30.8580     0.0000    24.0000 </r>
       <r>   -30.6641     0.0000    24.0000 </r>
       <r>   -30.4702     0.0000    24.0000 </r>
       <r>   -30.2764     0.0000    24.0000 </r>
       <r>   -30.0825     0.0000    24.0000 </r>
       <r>   -29.8886     0.0000    24.0000 </r>
       <r>   -29.6948     0.0000    24.0000 </r>
       <r>   -29.5009     0.0000    24.0000 </r>
       <r>   -29.3070     0.0000    24.0000 </r>
       <r>   -29.1131     0.0000    24.0000 </r>
       <r>   -28.9193     0.0000    24.0000 </r>
       <r>   -28.7254     0.0000    24.0000 </r>
       <r>   -28.5315     0.0000    24.0000 </r>
       <r>   -28.3377     0.0000    24.0000 </r>
       <r>   -28.1438     0.0000    24.0000 </r>
       <r>   -27.9499     0.0000    24.0000 </r>
       <r>   -27.7561     0.0000    24.0000 </r>
       <r>   -27.5622     0.0000    24.0000 </r>
       <r>   -27.3683     0.0000    24.0000 </r>
       <r>   -27.1745     0.0000    24.0000 </r>
       <r>   -26.9806     0.0000    24.0000 </r>
       <r>   -26.7867     0.0000    24.0000 </r>
       <r>   -26.5929     0.0000    24.0000 </r>
       <r>   -26.3990     0.0000    24.0000 </r>
       <r>   -26.2051     0.0000    24.0000 </r>
       <r>   -26.0113     0.0000    24.0000 </r>
       <r>   -25.8174     0.0000    24.0000 </r>
       <r>   -25.6235     0.0000    24.0000 </r>
       <r>   -25.4296     0.0000    24.0000 </r>
       <r>   -25.2358     0.0000    24.0000 </r>
       <r>   -25.0419     0.0000    24.0000 </r>
       <r>   -24.8480     0.0000    24.0000 </r>
       <r>   -24.6542     0.0000    24.0000 </r>
       <r>   -24.4603     0.0000    24.0000 </r>
       <r>   -24.2664     0.0000    24.0000 </r>
       <r>   -24.0726     0.0000    24.0000 </r>
       <r>   -23.8787     0.0000    24.0000 </r>
       <r>   -23.6848     0.0000    24.0000 </r>
       <r>   -23.4910     0.0000    24.0000 </r>
       <r>   -23.2971     0.0000    24.0000 </r>
       <r>   -23.1032     0.0000    24.0000 </r>
       <r>   -22.9094     0.0000    24.0000 </r>
       <r>   -22.7155     0.0000    24.0000 </r>
       <r>   -22.5216     0.0000    24.0000 </r>
       <r>   -22.3278     0.0000    24.0000 </r>
       <r>   -22.1339     0.0000    24.0000 </r>
       <r>   -21.9400     0.0000    24.0000 </r>
       <r>   -21.7461     0.0000    24.0000 </r>
       <r>   -21.5523     0.0000    24.0000 </r>
       <r>   -21.3584     0.0000    24.0000 </r>
       <r>   -21.1645     0.0000    24.0000 </r>
       <r>   -20.9707     0.0000    24.0000 </r>
       <r>   -20.7768     0.0000    24.0000 </r>
       <r>   -20.5829     0.0000    24.0000 </r>
       <r>   -20.3891     0.0000    24.0000 </r>
       <r>   -20.1952     0.0000    24.0000 </r>
       <r>   -20.0013     0.0000    24.0000 </r>
       <r>   -19.8075     0.0000    24.0000 </r>
       <r>   -19.6136     0.0000    24.0000 </r>
       <r>   -19.4197     0.0000    24.0000 </r>
       <r>   -19.2259     0.0000    24.0000 </r>
       <r>   -19.0320     0.0000    24.0000 </r>
       <r>   -18.8381     0.0000    24.0000 </r>
       <r>   -18.6443     0.0000    50.0000 </r>
       <r>   -18.4504     0.0000   152.0000 </r>
       <r>   -18.2565     0.0000   184.0000 </r>
       <r>   -18.0626     0.0000   184.0000 </r>
       <r>   -17.8688     0.0000   184.0000 </r>
       <r>   -17.6749     0.0000   184.0000 </r>
       <r>   -17.4810     0.0000   184.0000 </r>
       <r>   -17.2872     0.0000   184.0000 </r>
       <r>   -17.0933     0.0000   184.0000 </r>
       <r>   -16.8994     0.0000   184.0000 </r>
       <r>   -16.7056     0.0000   184.0000 </r>
       <r>   -16.5117     0.0000   184.0000 </r>
       <r>   -16.3178     0.0000   184.0000 </r>
       <r>   -16.1240     0.0000   184.0000 </r>
       <r>   -15.9301     0.0000   184.0000 </r>
       <r>   -15.7362     0.0000   184.0000 </r>
       <r>   -15.5424     0.0000   184.0000 </r>
       <r>   -15.3485     0.0000   184.0000 </r>
       <r>   -15.1546     0.0000   184.0000 </r>
       <r>   -14.9608     0.0000   184.0000 </r>
       <r>   -14.7669     0.0000   184.0000 </r>
       <r>   -14.5730     0.0000   184.0000 </r>
       <r>   -14.3791     0.0000   184.0000 </r>
       <r>   -14.1853     0.0000   184.0000 </r>
       <r>   -13.9914     0.0000   184.0000 </r>
       <r>   -13.7975     0.0000   184.0000 </r>
       <r>   -13.6037     0.0000   184.0000 </r>
       <r>   -13.4098     0.0000   184.0000 </r>
       <r>   -13.2159     0.0000   184.0000 </r>
       <r>   -13.0221     0.0000   186.0000 </r>
       <r>   -12.8282     0.0000   190.0000 </r>
       <r>   -12.6343    28.4704   200.0408 </r>
       <r>   -12.4405     0.0000   214.0000 </r>
       <r>   -12.2466     0.0000   216.0000 </r>
       <r>   -12.0527     0.0000   216.0000 </r>
       <r>   -11.8589     0.0000   216.0000 </r>
       <r>   -11.6650     0.0000   216.0000 </r>
       <r>   -11.4711     0.0000   216.0000 </r>
       <r>   -11.2773     0.0000   216.0000 </r>
       <r>   -11.0834     0.0000   216.0000 </r>
       <r>   -10.8895     0.0000   216.0000 </r>
       <r>   -10.6956     0.0000   216.0000 </r>
       <r>   -10.5018     0.0000   216.0000 </r>
       <r>   -10.3079     0.0000   216.0000 </r>
       <r>   -10.1140     0.0000   216.0000 </r>
       <r>    -9.9202     0.0000   216.0000 </r>
       <r>    -9.7263     0.0000   216.0000 </r>
       <r>    -9.5324     0.0000   216.0000 </r>
       <r>    -9.3386     0.0000   216.0000 </r>
       <r>    -9.1447    11.6786   217.1607 </r>
       <r>    -8.9508    13.6528   219.8971 </r>
       <r>    -8.7570    20.5240   221.2432 </r>
       <r>    -8.5631     7.8756   224.1172 </r>
       <r>    -8.3692    43.5889   228.1235 </r>
       <r>    -8.1754     0.0000   232.0000 </r>
       <r>    -7.9815    30.2030   236.1912 </r>
       <r>    -7.7876    19.4957   240.9554 </r>
       <r>    -7.5938    10.0102   244.1399 </r>
       <r>    -7.3999     8.7903   247.6975 </r>
       <r>    -7.2060     0.0000   248.0000 </r>
       <r>    -7.0121     0.0000   248.0000 </r>
       <r>    -6.8183     0.0000   248.0000 </r>
       <r>    -6.6244     0.0000   248.0000 </r>
       <r>    -6.4305     0.0000   248.0000 </r>
       <r>    -6.2367     7.3247   248.2731 </r>
       <r>    -6.0428    28.2240   251.6925 </r>
       <r>    -5.8489     6.0220   256.0794 </r>
       <r>    -5.6551    29.1811   260.4650 </r>
       <r>    -5.4612    22.3944   265.4431 </r>
       <r>    -5.2673    17.9146   269.4998 </r>
       <r>    -5.0735     5.8493   271.8501 </r>
       <r>    -4.8796     6.6190   272.5770 </r>
       <r>    -4.6857     9.8429   274.2421 </r>
       <r>    -4.4919     8.0429   276.3332 </r>
       <r>    -4.2980     6.4302   277.4138 </r>
       <r>    -4.1041     6.7725   278.8763 </r>
       <r>    -3.9103     2.0814   279.7194 </r>
       <r>    -3.7164     0.6340   279.9673 </r>
       <r>    -3.5225     0.0000   280.0000 </r>
       <r>    -3.3286     0.0000   280.0000 </r>
       <r>    -3.1348     0.0000   280.0000 </r>
       <r>    -2.9409     0.0000   280.0000 </r>
       <r>    -2.7470     0.0000   280.0000 </r>
       <r>    -2.5532     0.0000   280.0000 </r>
       <r>    -2.3593     0.0000   280.0000 </r>
       <r>    -2.1654     0.0000   280.0000 </r>
       <r>    -1.9716     0.0000   280.0000 </r>
       <r>    -1.7777     0.0000   280.0000 </r>
       <r>    -1.5838     0.0000   280.0000 </r>
       <r>    -1.3900     0.0000   280.0000 </r>
       <r>    -1.1961     4.4761   280.2047 </r>
       <r>    -1.0022     7.9885   281.6612 </r>
       <r>    -0.8084    12.9995   283.4822 </r>
       <r>    -0.6145     9.3791   285.7823 </r>
       <r>    -0.4206     6.8105   287.2288 </r>
       <r>    -0.2268    21.8021   290.1110 </r>
       <r>    -0.0329    33.8141   295.1106 </r>
       <r>     0.1610    41.9860   303.1231 </r>
       <r>     0.3549    38.6872   310.2148 </r>
       <r>     0.5487    36.6763   318.5632 </r>
       <r>     0.7426    44.9084   325.7555 </r>
       <r>     0.9365    26.1127   331.6813 </r>
       <r>     1.1303    50.7571   339.1989 </r>
       <r>     1.3242    46.3123   348.4761 </r>
       <r>     1.5181    40.8057   356.8457 </r>
       <r>     1.7119    58.3660   366.6513 </r>
       <r>     1.9058    69.1324   378.1296 </r>
       <r>     2.0997    37.8523   388.4063 </r>
       <r>     2.2935    36.4324   395.7603 </r>
       <r>     2.4874    61.7397   403.9104 </r>
       <r>     2.6813   101.2022   418.3542 </r>
       <r>     2.8751    74.0697   432.0034 </r>
       <r>     3.0690    58.4154   447.7758 </r>
       <r>     3.2629    23.6457   456.0736 </r>
       <r>     3.4567    36.2851   461.0722 </r>
       <r>     3.6506    15.3257   467.5808 </r>
       <r>     3.8445     9.7789   469.9361 </r>
       <r>     4.0384     5.2816   471.3960 </r>
       <r>     4.2322     0.7809   471.9836 </r>
       <r>     4.4261     0.0000   472.0000 </r>
       <r>     4.6200     0.0000   472.0000 </r>
       <r>     4.8138     0.0000   472.0000 </r>
       <r>     5.0077     0.0000   472.0000 </r>
       <r>     5.2016     0.1326   472.0016 </r>
       <r>     5.3954     4.5495   472.4210 </r>
       <r>     5.5893     9.3948   473.7732 </r>
       <r>     5.7832     8.7518   475.6313 </r>
       <r>     5.9770    14.6903   480.0091 </r>
       <r>     6.1709    12.3204   482.6068 </r>
       <r>     6.3648    12.5310   484.9721 </r>
       <r>     6.5586    14.3732   487.5802 </r>
       <r>     6.7525    16.2231   490.5446 </r>
       <r>     6.9464    18.4164   493.8872 </r>
       <r>     7.1402    24.0906   497.8685 </r>
       <r>     7.3341    37.3641   503.5307 </r>
       <r>     7.5280    32.7909   511.8939 </r>
       <r>     7.7219    32.3767   517.1759 </r>
       <r>     7.9157    32.2899   523.4988 </r>
       <r>     8.1096    42.2134   531.9520 </r>
       <r>     8.3035    20.1071   537.6307 </r>
       <r>     8.4973    16.1245   540.9263 </r>
       <r>     8.6912    31.1335   545.1238 </r>
       <r>     8.8851    43.7360   551.9446 </r>
       <r>     9.0789    28.1320   561.3089 </r>
       <r>     9.2728    14.8246   564.5828 </r>
       <r>     9.4667    10.9201   567.4548 </r>
       <r>     9.6605     8.9592   568.4396 </r>
       <r>     9.8544     9.6747   570.2895 </r>
       <r>    10.0483     5.2578   572.3797 </r>
       <r>    10.2421    10.9965   573.3526 </r>
       <r>    10.4360    22.1944   577.5140 </r>
       <r>    10.6299    27.9996   583.1675 </r>
       <r>    10.8237    66.6762   589.6922 </r>
       <r>    11.0176    12.5800   596.6796 </r>
       <r>    11.2115    30.1247   600.6731 </r>
       <r>    11.4054    23.3085   605.7328 </r>
       <r>    11.5992    22.0201   610.4496 </r>
       <r>    11.7931    17.1905   613.9535 </r>
       <r>    11.9870    23.7776   617.8489 </r>
       <r>    12.1808    30.9008   623.1259 </r>
       <r>    12.3747    36.1053   629.7408 </r>
       <r>    12.5686    25.6600   635.9841 </r>
       <r>    12.7624     8.8178   639.2753 </r>
       <r>    12.9563     0.3698   639.9921 </r>
       <r>    13.1502     0.0000   640.0000 </r>
       <r>    13.3440     0.0000   640.0000 </r>
       <r>    13.5379     0.0000   640.0000 </r>
       <r>    13.7318     0.0000   640.0000 </r>
       <r>    13.9256     0.0000   640.0000 </r>
       <r>    14.1195     0.0000   640.0000 </r>
       <r>    14.3134     0.0000   640.0000 </r>
       <r>    14.5072     0.0000   640.0000 </r>
       <r>    14.7011     0.0000   640.0000 </r>
       <r>    14.8950     0.0000   640.0000 </r>
       <r>    15.0889     0.0000   640.0000 </r>
       <r>    15.2827     0.0000   640.0000 </r>
       <r>    15.4766     0.0000   640.0000 </r>
       <r>    15.6705     0.0000   640.0000 </r>
      </set>
     </set>
    </array>
   </total>
  </dos>
 </calculation>
 <structure name="finalpos" >
  <crystal>
   <varray name="basis" >
    <v>      11.17850000       0.00000000       0.00000000 </v>
    <v>       0.00000000       9.57460000       0.00000000 </v>
    <v>       0.00000000       0.00000000      11.18240000 </v>
   </varray>
   <i name="volume">   1196.84853820 </i>
   <varray name="rec_basis" >
    <v>       0.08945744       0.00000000       0.00000000 </v>
    <v>       0.00000000       0.10444301       0.00000000 </v>
    <v>       0.00000000       0.00000000       0.08942624 </v>
   </varray>
  </crystal>
  <varray name="positions" >
   <v>       0.36457872       0.00155366       0.43570864 </v>
   <v>       0.12467150       0.00294880       0.19666548 </v>
   <v>       0.37463668       0.00075303       0.18625392 </v>
   <v>       0.61983384       0.00020630       0.43562789 </v>
   <v>       0.62338980       0.99779017       0.18660962 </v>
   <v>       0.87628654      -0.00249905       0.16926127 </v>
   <v>       0.11539041       0.99929523       0.94427938 </v>
   <v>       0.37532586      -0.00206171       0.93849406 </v>
   <v>       0.38188320      -0.00142497       0.68819275 </v>
   <v>       0.63543942       0.00010474       0.93835619 </v>
   <v>       0.62311707       0.00239514       0.68776925 </v>
   <v>       0.86829733       0.00109371       0.70560216 </v>
   <v>       0.88323025       0.00180334       0.43944083 </v>
   <v>       0.12682074       0.00557074       0.67388290 </v>
   <v>       0.00080094       0.29144358       0.06250094 </v>
   <v>       0.25163985       0.70350917       0.06122200 </v>
   <v>       0.25090704       0.29102605       0.31078969 </v>
   <v>       0.50176248       0.70416127       0.31155010 </v>
   <v>       0.49862688       0.29569943       0.06303597 </v>
   <v>       0.74883884       0.70839178       0.06404654 </v>
   <v>       0.74939935       0.30323554       0.31407027 </v>
   <v>      -0.00069965       0.69955854       0.31197658 </v>
   <v>      -0.00120053       0.30805191       0.56273473 </v>
   <v>       0.25127243       0.69964363       0.56369488 </v>
   <v>       0.25056748       0.30294241       0.81328210 </v>
   <v>       0.49817887       0.70412634       0.81295834 </v>
   <v>       0.50138852       0.29547139       0.56302127 </v>
   <v>       0.74987003       0.69708601       0.56026353 </v>
   <v>       0.74906188       0.29143224       0.81235723 </v>
   <v>       0.00095781       0.70125310       0.81315347 </v>
   <v>       0.24951933       0.33918409       0.06288951 </v>
   <v>       0.00052571       0.66720415       0.06350107 </v>
   <v>       0.49957777       0.33679721       0.31391500 </v>
   <v>       0.25096198       0.66873652       0.31285244 </v>
   <v>       0.74974639       0.33178370       0.06265999 </v>
   <v>       0.50034162       0.66168722       0.06246009 </v>
   <v>       0.99867237       0.33320264       0.31419618 </v>
   <v>       0.75086034       0.65882645       0.31400804 </v>
   <v>       0.24919176       0.33095873       0.56363417 </v>
   <v>       0.00027268       0.66567638       0.56264688 </v>
   <v>       0.50056996       0.33678148       0.81251041 </v>
   <v>       0.24871216       0.65887519       0.81180360 </v>
   <v>       0.75099097       0.33903914       0.56246697 </v>
   <v>       0.49965507       0.66521371       0.56257633 </v>
   <v>       0.00080353       0.33369179       0.81129347 </v>
   <v>       0.74937493       0.66938478       0.81224689 </v>
   <v>       0.49874163       0.07856196       0.06169004 </v>
   <v>       0.25145800       0.92065879       0.05894302 </v>
   <v>       0.26357020       0.07835271       0.29976634 </v>
   <v>      -0.02000840       0.91703197       0.30462579 </v>
   <v>       0.01546154       0.07914809       0.07684718 </v>
   <v>       0.73586666       0.92133470       0.07671925 </v>
   <v>       0.75794410       0.08306508       0.32429946 </v>
   <v>       0.50221699       0.92196009       0.31302124 </v>
   <v>       0.50117207       0.07727785       0.56193743 </v>
   <v>       0.26020274       0.91768047       0.57959188 </v>
   <v>       0.24221343       0.08300270       0.80338250 </v>
   <v>       0.01682543       0.91792981       0.79472658 </v>
   <v>       0.98701231       0.08362953       0.57447648 </v>
   <v>       0.75943564       0.91845304       0.55273927 </v>
   <v>       0.73535732       0.07850414       0.79827382 </v>
   <v>       0.49770016       0.92187436       0.81283666 </v>
  </varray>
 </structure>
</modeling>
