<?xml version="1.0" encoding="ISO-8859-1"?>
<modeling>
 <generator>
  <i name="program" type="string">vasp </i>
  <i name="version" type="string">5.4.4.18Apr17-6-g9f103f2a35  </i>
  <i name="subversion" type="string">(build Jul 31 2017 11:33:29) complex            parallel </i>
  <i name="platform" type="string">LinuxIFC </i>
  <i name="date" type="string">2021 09 29 </i>
  <i name="time" type="string">15:33:24 </i>
 </generator>
 <incar>
  <i type="string" name="SYSTEM"> La2O2S</i>
  <i type="string" name="PREC">normal</i>
  <i type="int" name="NELMIN">     4</i>
  <i type="int" name="IBRION">     2</i>
  <i type="int" name="NFREE">    10</i>
  <i name="EDIFF">      0.00000100</i>
  <i name="EDIFFG">     -0.01000000</i>
  <i type="int" name="NSW">     1</i>
  <i type="int" name="ISIF">     2</i>
  <i name="ENCUT">    600.00000000</i>
  <i name="ENAUG">    900.00000000</i>
  <i type="int" name="ISMEAR">    -5</i>
  <i type="logical" name="LWAVE"> F  </i>
  <i type="logical" name="LCHARG"> F  </i>
  <v type="int" name="KPOINT_BSE">    -1     0     0     0</v>
 </incar>
 <structure name="primitive_cell" >
  <crystal>
   <varray name="basis" >
    <v>      11.17850000       0.00000000       0.00000000 </v>
    <v>       0.00000000       9.57460000       0.00000000 </v>
    <v>       0.00000000       0.00000000      11.18240000 </v>
   </varray>
   <i name="volume">   1196.84853820 </i>
   <varray name="rec_basis" >
    <v>       0.08945744       0.00000000       0.00000000 </v>
    <v>       0.00000000       0.10444301       0.00000000 </v>
    <v>       0.00000000       0.00000000       0.08942624 </v>
   </varray>
  </crystal>
  <varray name="positions" >
   <v>       0.37539000       0.00017000       0.43687000 </v>
   <v>      -0.49987000      -0.07798000       0.31246000 </v>
   <v>       0.25013000       0.07798000       0.31246000 </v>
   <v>       0.49987000       0.07798000      -0.43754000 </v>
   <v>       0.24987000      -0.07798000      -0.43754000 </v>
   <v>       0.37461000       0.00017000      -0.31313000 </v>
   <v>       0.49987000      -0.29519000       0.31282000 </v>
   <v>       0.24987000       0.29519000       0.31282000 </v>
   <v>      -0.49987000       0.29519000      -0.43719000 </v>
   <v>       0.25013000      -0.29519000      -0.43719000 </v>
   <v>       0.49995000       0.32677000       0.31286000 </v>
   <v>       0.24995000      -0.32677000       0.31286000 </v>
   <v>      -0.49995000      -0.32677000      -0.43714000 </v>
   <v>       0.25005000       0.32677000      -0.43714000 </v>
   <v>      -0.37539000      -0.00016000       0.18687000 </v>
   <v>      -0.37539000      -0.00016000      -0.31313000 </v>
   <v>       0.12461000      -0.00016000       0.18687000 </v>
   <v>       0.12461000      -0.00016000      -0.31313000 </v>
   <v>       0.49987000       0.07798000       0.06246000 </v>
   <v>      -0.24987000       0.07798000       0.31246000 </v>
   <v>      -0.25013000      -0.07798000      -0.43754000 </v>
   <v>       0.24987000      -0.07798000       0.06246000 </v>
   <v>       0.00013000      -0.07798000       0.31246000 </v>
   <v>      -0.49987000      -0.07798000      -0.18754000 </v>
   <v>      -0.00013000       0.07798000      -0.43754000 </v>
   <v>       0.25013000       0.07798000      -0.18754000 </v>
   <v>      -0.49987000       0.29519000       0.06281000 </v>
   <v>      -0.25013000       0.29519000       0.31282000 </v>
   <v>       0.25013000      -0.29519000       0.06281000 </v>
   <v>      -0.24987000      -0.29519000      -0.43719000 </v>
   <v>      -0.00013000      -0.29519000       0.31282000 </v>
   <v>       0.00013000       0.29519000      -0.43719000 </v>
   <v>       0.49987000      -0.29519000      -0.18718000 </v>
   <v>       0.24987000       0.29519000      -0.18718000 </v>
   <v>      -0.49995000      -0.32677000       0.06286000 </v>
   <v>       0.25005000       0.32677000       0.06286000 </v>
   <v>      -0.25005000      -0.32677000       0.31286000 </v>
   <v>      -0.24995000       0.32677000      -0.43714000 </v>
   <v>      -0.00005000       0.32677000       0.31286000 </v>
   <v>       0.00005000      -0.32677000      -0.43714000 </v>
   <v>       0.49995000       0.32677000      -0.18714000 </v>
   <v>       0.24995000      -0.32677000      -0.18714000 </v>
   <v>      -0.12461000       0.00017000       0.43687000 </v>
   <v>       0.37539000       0.00017000      -0.06313000 </v>
   <v>      -0.25013000      -0.07798000       0.06246000 </v>
   <v>      -0.00013000       0.07798000       0.06246000 </v>
   <v>      -0.24987000       0.07798000      -0.18754000 </v>
   <v>       0.00013000      -0.07798000      -0.18754000 </v>
   <v>      -0.12539000       0.00017000       0.18687000 </v>
   <v>       0.12539000      -0.00016000      -0.06313000 </v>
   <v>      -0.24987000      -0.29519000       0.06281000 </v>
   <v>       0.00013000       0.29519000       0.06281000 </v>
   <v>      -0.25013000       0.29519000      -0.18718000 </v>
   <v>      -0.00013000      -0.29519000      -0.18718000 </v>
   <v>      -0.24995000       0.32677000       0.06286000 </v>
   <v>       0.00005000      -0.32677000       0.06286000 </v>
   <v>      -0.25005000      -0.32677000      -0.18714000 </v>
   <v>      -0.00005000       0.32677000      -0.18714000 </v>
   <v>      -0.12461000       0.00017000      -0.06313000 </v>
  </varray>
 </structure>
 <varray name="primitive_index" >
  <v type="int" >        1 </v>
  <v type="int" >       51 </v>
  <v type="int" >       46 </v>
  <v type="int" >       52 </v>
  <v type="int" >       53 </v>
  <v type="int" >        5 </v>
  <v type="int" >       15 </v>
  <v type="int" >       14 </v>
  <v type="int" >       24 </v>
  <v type="int" >       21 </v>
  <v type="int" >       30 </v>
  <v type="int" >       31 </v>
  <v type="int" >       41 </v>
  <v type="int" >       36 </v>
  <v type="int" >        9 </v>
  <v type="int" >       11 </v>
  <v type="int" >        7 </v>
  <v type="int" >       10 </v>
  <v type="int" >       44 </v>
  <v type="int" >       50 </v>
  <v type="int" >       57 </v>
  <v type="int" >       45 </v>
  <v type="int" >       47 </v>
  <v type="int" >       59 </v>
  <v type="int" >       56 </v>
  <v type="int" >       54 </v>
  <v type="int" >       16 </v>
  <v type="int" >       18 </v>
  <v type="int" >       13 </v>
  <v type="int" >       25 </v>
  <v type="int" >       19 </v>
  <v type="int" >       20 </v>
  <v type="int" >       23 </v>
  <v type="int" >       22 </v>
  <v type="int" >       33 </v>
  <v type="int" >       28 </v>
  <v type="int" >       35 </v>
  <v type="int" >       40 </v>
  <v type="int" >       34 </v>
  <v type="int" >       37 </v>
  <v type="int" >       38 </v>
  <v type="int" >       39 </v>
  <v type="int" >        8 </v>
  <v type="int" >        4 </v>
  <v type="int" >       49 </v>
  <v type="int" >       48 </v>
  <v type="int" >       58 </v>
  <v type="int" >       55 </v>
  <v type="int" >        2 </v>
  <v type="int" >        3 </v>
  <v type="int" >       17 </v>
  <v type="int" >       12 </v>
  <v type="int" >       26 </v>
  <v type="int" >       27 </v>
  <v type="int" >       32 </v>
  <v type="int" >       29 </v>
  <v type="int" >       43 </v>
  <v type="int" >       42 </v>
  <v type="int" >        6 </v>
 </varray>
 <kpoints>
  <generation param="Gamma">
   <v type="int" name="divisions">       2        2        2 </v>
   <v name="usershift">      0.00000000       0.00000000       0.00000000 </v>
   <v name="genvec1">      0.50000000       0.00000000       0.00000000 </v>
   <v name="genvec2">      0.00000000       0.50000000       0.00000000 </v>
   <v name="genvec3">      0.00000000       0.00000000       0.50000000 </v>
   <v name="shift">      0.00000000       0.00000000       0.00000000 </v>
  </generation>
  <varray name="kpointlist" >
   <v>       0.00000000       0.00000000       0.00000000 </v>
   <v>       0.50000000       0.00000000       0.00000000 </v>
   <v>       0.00000000       0.50000000       0.00000000 </v>
   <v>       0.50000000       0.50000000       0.00000000 </v>
   <v>       0.00000000       0.00000000       0.50000000 </v>
   <v>       0.50000000       0.00000000       0.50000000 </v>
   <v>       0.00000000       0.50000000       0.50000000 </v>
   <v>       0.50000000       0.50000000       0.50000000 </v>
  </varray>
  <varray name="weights" >
   <v>       0.12500000 </v>
   <v>       0.12500000 </v>
   <v>       0.12500000 </v>
   <v>       0.12500000 </v>
   <v>       0.12500000 </v>
   <v>       0.12500000 </v>
   <v>       0.12500000 </v>
   <v>       0.12500000 </v>
  </varray>
  <varray name="tetrahedronlist"  type="int" >
   <v type="int" >        2        1        2        4        5 </v>
   <v type="int" >        2        1        3        4        5 </v>
   <v type="int" >        2        3        4        5        7 </v>
   <v type="int" >        2        2        4        5        6 </v>
   <v type="int" >        2        4        5        6        8 </v>
   <v type="int" >        2        4        5        7        8 </v>
   <v type="int" >        2        1        2        3        6 </v>
   <v type="int" >        2        2        3        4        6 </v>
   <v type="int" >        2        3        4        6        8 </v>
   <v type="int" >        2        1        3        5        6 </v>
   <v type="int" >        2        3        5        6        7 </v>
   <v type="int" >        2        3        6        7        8 </v>
   <v type="int" >        2        2        3        4        7 </v>
   <v type="int" >        2        1        2        3        7 </v>
   <v type="int" >        2        1        2        5        7 </v>
   <v type="int" >        2        2        4        7        8 </v>
   <v type="int" >        2        2        6        7        8 </v>
   <v type="int" >        2        2        5        6        7 </v>
   <v type="int" >        2        1        3        4        8 </v>
   <v type="int" >        2        1        2        4        8 </v>
   <v type="int" >        2        1        2        6        8 </v>
   <v type="int" >        2        1        3        7        8 </v>
   <v type="int" >        2        1        5        7        8 </v>
   <v type="int" >        2        1        5        6        8 </v>
  </varray>
  <i name="volumeweight">      0.02083333 </i>
 </kpoints>
 <parameters>
  <separator name="general" >
   <i type="string" name="SYSTEM">La2O2S</i>
   <i type="logical" name="LCOMPAT"> F  </i>
  </separator>
  <separator name="electronic" >
   <i type="string" name="PREC">normal</i>
   <i name="ENMAX">    600.00000000</i>
   <i name="ENAUG">    900.00000000</i>
   <i name="EDIFF">      0.00000100</i>
   <i type="int" name="IALGO">    38</i>
   <i type="int" name="IWAVPR">    11</i>
   <i type="int" name="NBANDS">   280</i>
   <i name="NELECT">    460.00000000</i>
   <i type="int" name="TURBO">     0</i>
   <i type="int" name="IRESTART">     0</i>
   <i type="int" name="NREBOOT">     0</i>
   <i type="int" name="NMIN">     0</i>
   <i name="EREF">      0.00000000</i>
   <separator name="electronic smearing" >
    <i type="int" name="ISMEAR">    -5</i>
    <i name="SIGMA">      0.20000000</i>
    <i name="KSPACING">      0.50000000</i>
    <i type="logical" name="KGAMMA"> T  </i>
   </separator>
   <separator name="electronic projectors" >
    <i type="logical" name="LREAL"> F  </i>
    <v name="ROPT">      0.00000000      0.00000000      0.00000000      0.00000000      0.00000000</v>
    <i type="int" name="LMAXPAW">  -100</i>
    <i type="int" name="LMAXMIX">     2</i>
    <i type="logical" name="NLSPLINE"> F  </i>
   </separator>
   <separator name="electronic startup" >
    <i type="int" name="ISTART">     0</i>
    <i type="int" name="ICHARG">     2</i>
    <i type="int" name="INIWAV">     1</i>
   </separator>
   <separator name="electronic spin" >
    <i type="int" name="ISPIN">     1</i>
    <i type="logical" name="LNONCOLLINEAR"> F  </i>
    <v name="MAGMOM">      1.00000000      1.00000000      1.00000000      1.00000000      1.00000000      1.00000000      1.00000000      1.00000000      1.00000000      1.00000000      1.00000000      1.00000000      1.00000000      1.00000000      1.00000000      1.00000000      1.00000000      1.00000000      1.00000000      1.00000000
      1.00000000      1.00000000      1.00000000      1.00000000      1.00000000      1.00000000      1.00000000      1.00000000      1.00000000      1.00000000      1.00000000      1.00000000      1.00000000      1.00000000      1.00000000      1.00000000      1.00000000      1.00000000      1.00000000      1.00000000
      1.00000000      1.00000000      1.00000000      1.00000000      1.00000000      1.00000000      1.00000000      1.00000000      1.00000000      1.00000000      1.00000000      1.00000000      1.00000000      1.00000000      1.00000000      1.00000000      1.00000000      1.00000000      1.00000000</v>
    <i name="NUPDOWN">     -1.00000000</i>
    <i type="logical" name="LSORBIT"> F  </i>
    <v name="SAXIS">      0.00000000      0.00000000      1.00000000</v>
    <i type="logical" name="LSPIRAL"> F  </i>
    <v name="QSPIRAL">      0.00000000      0.00000000      0.00000000</v>
    <i type="logical" name="LZEROZ"> F  </i>
   </separator>
   <separator name="electronic exchange-correlation" >
    <i type="logical" name="LASPH"> F  </i>
    <i type="logical" name="LMETAGGA"> F  </i>
   </separator>
   <separator name="electronic convergence" >
    <i type="int" name="NELM">    60</i>
    <i type="int" name="NELMDL">    -5</i>
    <i type="int" name="NELMIN">     4</i>
    <i name="ENINI">    600.00000000</i>
    <separator name="electronic convergence detail" >
     <i type="logical" name="LDIAG"> T  </i>
     <i type="logical" name="LSUBROT"> F  </i>
     <i name="WEIMIN">      0.00100000</i>
     <i name="EBREAK">      0.00000000</i>
     <i name="DEPER">      0.30000000</i>
     <i type="int" name="NRMM">     4</i>
     <i name="TIME">      0.40000000</i>
    </separator>
   </separator>
   <separator name="electronic mixer" >
    <i name="AMIX">      0.40000000</i>
    <i name="BMIX">      1.00000000</i>
    <i name="AMIN">      0.10000000</i>
    <i name="AMIX_MAG">      1.60000000</i>
    <i name="BMIX_MAG">      1.00000000</i>
    <separator name="electronic mixer details" >
     <i type="int" name="IMIX">     4</i>
     <i type="logical" name="MIXFIRST"> F  </i>
     <i type="int" name="MAXMIX">   -45</i>
     <i name="WC">    100.00000000</i>
     <i type="int" name="INIMIX">     1</i>
     <i type="int" name="MIXPRE">     1</i>
     <i type="int" name="MREMOVE">     5</i>
    </separator>
   </separator>
   <separator name="electronic dipolcorrection" >
    <i type="logical" name="LDIPOL"> F  </i>
    <i type="logical" name="LMONO"> F  </i>
    <i type="int" name="IDIPOL">     0</i>
    <i name="EPSILON">      1.00000000</i>
    <v name="DIPOL">   -100.00000000   -100.00000000   -100.00000000</v>
    <i name="EFIELD">      0.00000000</i>
   </separator>
  </separator>
  <separator name="grids" >
   <i type="int" name="NGX">    70</i>
   <i type="int" name="NGY">    60</i>
   <i type="int" name="NGZ">    70</i>
   <i type="int" name="NGXF">   140</i>
   <i type="int" name="NGYF">   120</i>
   <i type="int" name="NGZF">   140</i>
   <i type="logical" name="ADDGRID"> F  </i>
  </separator>
  <separator name="ionic" >
   <i type="int" name="NSW">     1</i>
   <i type="int" name="IBRION">     2</i>
   <i type="int" name="MDALGO">     0</i>
   <i type="int" name="ISIF">     2</i>
   <i name="PSTRESS">      0.00000000</i>
   <i name="EDIFFG">     -0.01000000</i>
   <i type="int" name="NFREE">    10</i>
   <i name="POTIM">      0.50000000</i>
   <i name="SMASS">     -3.00000000</i>
   <i name="SCALEE">      1.00000000</i>
  </separator>
  <separator name="ionic md" >
   <i name="TEBEG">      0.00010000</i>
   <i name="TEEND">      0.00010000</i>
   <i type="int" name="NBLOCK">     1</i>
   <i type="int" name="KBLOCK">     1</i>
   <i type="int" name="NPACO">   256</i>
   <i name="APACO">     16.00000000</i>
  </separator>
  <separator name="symmetry" >
   <i type="int" name="ISYM">     2</i>
   <i name="SYMPREC">      0.00001000</i>
  </separator>
  <separator name="dos" >
   <i type="int" name="LORBIT">     0</i>
   <v name="RWIGS">     -1.00000000     -1.00000000     -1.00000000     -1.00000000     -1.00000000</v>
   <i type="int" name="NEDOS">   301</i>
   <i name="EMIN">     10.00000000</i>
   <i name="EMAX">    -10.00000000</i>
   <i name="EFERMI">      0.00000000</i>
  </separator>
  <separator name="writing" >
   <i type="int" name="NWRITE">     2</i>
   <i type="logical" name="LWAVE"> F  </i>
   <i type="logical" name="LDOWNSAMPLE"> F  </i>
   <i type="logical" name="LCHARG"> F  </i>
   <i type="logical" name="LPARD"> F  </i>
   <i type="logical" name="LVTOT"> F  </i>
   <i type="logical" name="LVHAR"> F  </i>
   <i type="logical" name="LELF"> F  </i>
   <i type="logical" name="LOPTICS"> F  </i>
   <v name="STM">      0.00000000      0.00000000      0.00000000      0.00000000      0.00000000      0.00000000      0.00000000</v>
  </separator>
  <separator name="performance" >
   <i type="int" name="NPAR">    28</i>
   <i type="int" name="NSIM">     4</i>
   <i type="int" name="NBLK">    -1</i>
   <i type="logical" name="LPLANE"> T  </i>
   <i type="logical" name="LSCALAPACK"> T  </i>
   <i type="logical" name="LSCAAWARE"> F  </i>
   <i type="logical" name="LSCALU"> F  </i>
   <i type="logical" name="LASYNC"> F  </i>
   <i type="logical" name="LORBITALREAL"> F  </i>
  </separator>
  <separator name="miscellaneous" >
   <i type="int" name="IDIOT">     3</i>
   <i type="int" name="ISPECIAL">     0</i>
   <i type="logical" name="LMUSIC"> F  </i>
   <v name="POMASS">      7.01000000     24.30500000    208.98000000     32.06600000     16.00000000</v>
   <v name="DARWINR">      0.00000000      0.00000000      0.00000000      0.00000000      0.00000000</v>
   <v name="DARWINV">      1.00000000      1.00000000      1.00000000      1.00000000      1.00000000</v>
   <i type="logical" name="LCORR"> T  </i>
  </separator>
  <i type="logical" name="GGA_COMPAT"> T  </i>
  <i type="logical" name="LBERRY"> F  </i>
  <i type="int" name="ICORELEVEL">     0</i>
  <i type="logical" name="LDAU"> F  </i>
  <i type="int" name="I_CONSTRAINED_M">     0</i>
  <separator name="electronic exchange-correlation" >
   <i type="string" name="GGA">--</i>
   <i type="int" name="VOSKOWN">     0</i>
   <i type="logical" name="LHFCALC"> F  </i>
   <i type="string" name="PRECFOCK"></i>
   <i type="logical" name="LSYMGRAD"> F  </i>
   <i type="logical" name="LHFONE"> F  </i>
   <i type="logical" name="LRHFCALC"> F  </i>
   <i type="logical" name="LTHOMAS"> F  </i>
   <i type="logical" name="LMODELHF"> F  </i>
   <i name="ENCUT4O">     -1.00000000</i>
   <i type="int" name="EXXOEP">     0</i>
   <i type="int" name="FOURORBIT">     0</i>
   <i name="AEXX">      0.00000000</i>
   <i name="HFALPHA">      0.00000000</i>
   <i name="MCALPHA">      0.00000000</i>
   <i name="ALDAX">      1.00000000</i>
   <i name="AGGAX">      1.00000000</i>
   <i name="ALDAC">      1.00000000</i>
   <i name="AGGAC">      1.00000000</i>
   <i type="int" name="NKREDX">     1</i>
   <i type="int" name="NKREDY">     1</i>
   <i type="int" name="NKREDZ">     1</i>
   <i type="logical" name="SHIFTRED"> F  </i>
   <i type="logical" name="ODDONLY"> F  </i>
   <i type="logical" name="EVENONLY"> F  </i>
   <i type="int" name="LMAXFOCK">     0</i>
   <i type="int" name="NMAXFOCKAE">     0</i>
   <i type="logical" name="LFOCKAEDFT"> F  </i>
   <i name="HFSCREEN">      0.00000000</i>
   <i name="HFSCREENC">      0.00000000</i>
   <i type="int" name="NBANDSGWLOW">     0</i>
  </separator>
  <separator name="vdW DFT" >
   <i type="logical" name="LUSE_VDW"> F  </i>
   <i name="Zab_VDW">     -0.84910000</i>
   <i name="PARAM1">      0.12340000</i>
   <i name="PARAM2">      1.00000000</i>
   <i name="PARAM3">      0.00000000</i>
  </separator>
  <separator name="model GW" >
   <i type="int" name="MODEL_GW">     0</i>
   <i name="MODEL_EPS0">     12.17134107</i>
   <i name="MODEL_ALPHA">      1.00000000</i>
  </separator>
  <separator name="linear response parameters" >
   <i type="logical" name="LEPSILON"> F  </i>
   <i type="logical" name="LRPA"> F  </i>
   <i type="logical" name="LNABLA"> F  </i>
   <i type="logical" name="LVEL"> F  </i>
   <i type="int" name="KINTER">     0</i>
   <i name="CSHIFT">      0.10000000</i>
   <i name="OMEGAMAX">     -1.00000000</i>
   <i name="DEG_THRESHOLD">      0.00200000</i>
   <i name="RTIME">     -0.10000000</i>
   <i name="WPLASMAI">      0.00000000</i>
   <v name="DFIELD">      0.00000000      0.00000000      0.00000000</v>
   <v name="WPLASMA">      0.00000000      0.00000000      0.00000000      0.00000000      0.00000000      0.00000000      0.00000000      0.00000000      0.00000000</v>
  </separator>
  <separator name="orbital magnetization" >
   <i type="logical" name="NUCIND"> F  </i>
   <v name="MAGPOS">      0.00000000      0.00000000      0.00000000</v>
   <i type="logical" name="LNICSALL"> T  </i>
   <i type="logical" name="ORBITALMAG"> F  </i>
   <i type="logical" name="LMAGBLOCH"> F  </i>
   <i type="logical" name="LCHIMAG"> F  </i>
   <i type="logical" name="LGAUGE"> T  </i>
   <i type="int" name="MAGATOM">     0</i>
   <v name="MAGDIPOL">      0.00000000      0.00000000      0.00000000</v>
   <v name="AVECCONST">      0.00000000      0.00000000      0.00000000</v>
  </separator>
  <separator name="response functions" >
   <i type="logical" name="LADDER"> F  </i>
   <i type="logical" name="LRPAFORCE"> F  </i>
   <i type="logical" name="LFXC"> F  </i>
   <i type="logical" name="LHARTREE"> T  </i>
   <i type="int" name="IBSE">     0</i>
   <v type="int" name="KPOINT">    -1     0     0     0</v>
   <i type="logical" name="LTCTE"> F  </i>
   <i type="logical" name="LTETE"> F  </i>
   <i type="logical" name="LTRIPLET"> F  </i>
   <i type="logical" name="LFXCEPS"> F  </i>
   <i type="logical" name="LFXHEG"> F  </i>
   <i type="int" name="NATURALO">     2</i>
   <i type="logical" name="L2ORDER"> F  </i>
   <i type="logical" name="LMP2LT"> F  </i>
   <i type="logical" name="LUSEW"> F  </i>
   <i name="ENCUTGW">     -2.00000000</i>
   <i name="ENCUTGWSOFT">     -2.00000000</i>
   <i name="ENCUTLF">     -1.00000000</i>
   <i type="int" name="LMAXMP2">    -1</i>
   <i name="SCISSOR">      0.00000000</i>
   <i type="int" name="NOMEGA">     0</i>
   <i type="int" name="NOMEGAR">     0</i>
   <i type="int" name="NBANDSGW">    -1</i>
   <i type="int" name="NBANDSO">    -1</i>
   <i type="int" name="NBANDSV">    -1</i>
   <i type="int" name="NELM">     1</i>
   <i type="int" name="NELMHF">     1</i>
   <i type="int" name="DIM">     3</i>
   <i type="int" name="ANTIRES">     0</i>
   <i name="OMEGAMAX">    -30.00000000</i>
   <i name="OMEGAMIN">    -30.00000000</i>
   <i name="OMEGATL">   -200.00000000</i>
   <i type="int" name="OMEGAGRID">   140</i>
   <i name="CSHIFT">     -0.10000000</i>
   <i type="logical" name="SELFENERGY"> F  </i>
   <i type="logical" name="LSPECTRAL"> F  </i>
   <i type="logical" name="LSPECTRALGW"> F  </i>
   <i type="logical" name="LSINGLES"> F  </i>
   <i type="logical" name="LFERMIGW"> F  </i>
   <i type="logical" name="ODDONLYGW"> F  </i>
   <i type="logical" name="EVENONLYGW"> F  </i>
   <i type="int" name="NKREDLFX">     1</i>
   <i type="int" name="NKREDLFY">     1</i>
   <i type="int" name="NKREDLFZ">     1</i>
   <i type="int" name="MAXMEM">  2800</i>
   <i type="int" name="TELESCOPE">     0</i>
   <i type="int" name="TAUPAR">     1</i>
   <i type="int" name="OMEGAPAR">    -1</i>
   <i name="LAMBDA">      1.00000000</i>
  </separator>
  <separator name="External order field" >
   <i name="OFIELD_KAPPA">      0.00000000</i>
   <v name="OFIELD_K">      0.00000000      0.00000000      0.00000000</v>
   <i name="OFIELD_Q6_NEAR">      0.00000000</i>
   <i name="OFIELD_Q6_FAR">      0.00000000</i>
   <i name="OFIELD_A">      0.00000000</i>
  </separator>
 </parameters>
 <atominfo>
  <atoms>      59 </atoms>
  <types>       5 </types>
  <array name="atoms" >
   <dimension dim="1">ion</dimension>
   <field type="string">element</field>
   <field type="int">atomtype</field>
   <set>
    <rc><c>Li</c><c>   1</c></rc>
    <rc><c>Li</c><c>   1</c></rc>
    <rc><c>Li</c><c>   1</c></rc>
    <rc><c>Li</c><c>   1</c></rc>
    <rc><c>Li</c><c>   1</c></rc>
    <rc><c>Li</c><c>   1</c></rc>
    <rc><c>Mg</c><c>   2</c></rc>
    <rc><c>Mg</c><c>   2</c></rc>
    <rc><c>Mg</c><c>   2</c></rc>
    <rc><c>Mg</c><c>   2</c></rc>
    <rc><c>Mg</c><c>   2</c></rc>
    <rc><c>Bi</c><c>   3</c></rc>
    <rc><c>Bi</c><c>   3</c></rc>
    <rc><c>Bi</c><c>   3</c></rc>
    <rc><c>Bi</c><c>   3</c></rc>
    <rc><c>Bi</c><c>   3</c></rc>
    <rc><c>Bi</c><c>   3</c></rc>
    <rc><c>Bi</c><c>   3</c></rc>
    <rc><c>Bi</c><c>   3</c></rc>
    <rc><c>Bi</c><c>   3</c></rc>
    <rc><c>Bi</c><c>   3</c></rc>
    <rc><c>Bi</c><c>   3</c></rc>
    <rc><c>Bi</c><c>   3</c></rc>
    <rc><c>Bi</c><c>   3</c></rc>
    <rc><c>Bi</c><c>   3</c></rc>
    <rc><c>Bi</c><c>   3</c></rc>
    <rc><c>Bi</c><c>   3</c></rc>
    <rc><c>S </c><c>   4</c></rc>
    <rc><c>S </c><c>   4</c></rc>
    <rc><c>S </c><c>   4</c></rc>
    <rc><c>S </c><c>   4</c></rc>
    <rc><c>S </c><c>   4</c></rc>
    <rc><c>S </c><c>   4</c></rc>
    <rc><c>S </c><c>   4</c></rc>
    <rc><c>S </c><c>   4</c></rc>
    <rc><c>S </c><c>   4</c></rc>
    <rc><c>S </c><c>   4</c></rc>
    <rc><c>S </c><c>   4</c></rc>
    <rc><c>S </c><c>   4</c></rc>
    <rc><c>S </c><c>   4</c></rc>
    <rc><c>S </c><c>   4</c></rc>
    <rc><c>S </c><c>   4</c></rc>
    <rc><c>S </c><c>   4</c></rc>
    <rc><c>O </c><c>   5</c></rc>
    <rc><c>O </c><c>   5</c></rc>
    <rc><c>O </c><c>   5</c></rc>
    <rc><c>O </c><c>   5</c></rc>
    <rc><c>O </c><c>   5</c></rc>
    <rc><c>O </c><c>   5</c></rc>
    <rc><c>O </c><c>   5</c></rc>
    <rc><c>O </c><c>   5</c></rc>
    <rc><c>O </c><c>   5</c></rc>
    <rc><c>O </c><c>   5</c></rc>
    <rc><c>O </c><c>   5</c></rc>
    <rc><c>O </c><c>   5</c></rc>
    <rc><c>O </c><c>   5</c></rc>
    <rc><c>O </c><c>   5</c></rc>
    <rc><c>O </c><c>   5</c></rc>
    <rc><c>O </c><c>   5</c></rc>
   </set>
  </array>
  <array name="atomtypes" >
   <dimension dim="1">type</dimension>
   <field type="int">atomspertype</field>
   <field type="string">element</field>
   <field>mass</field>
   <field>valence</field>
   <field type="string">pseudopotential</field>
   <set>
    <rc><c>   6</c><c>Li</c><c>      7.01000000</c><c>      3.00000000</c><c>  PAW_PBE Li_sv 10Sep2004               </c></rc>
    <rc><c>   5</c><c>Mg</c><c>     24.30500000</c><c>      2.00000000</c><c>  PAW_PBE Mg 13Apr2007                  </c></rc>
    <rc><c>  16</c><c>Bi</c><c>    208.98000000</c><c>     15.00000000</c><c>  PAW_PBE Bi_d 06Sep2000                </c></rc>
    <rc><c>  16</c><c>S </c><c>     32.06600000</c><c>      6.00000000</c><c>  PAW_PBE S 06Sep2000                   </c></rc>
    <rc><c>  16</c><c>O </c><c>     16.00000000</c><c>      6.00000000</c><c>  PAW_PBE O 08Apr2002                   </c></rc>
   </set>
  </array>
 </atominfo>
 <structure name="initialpos" >
  <crystal>
   <varray name="basis" >
    <v>      11.17850000       0.00000000       0.00000000 </v>
    <v>       0.00000000       9.57460000       0.00000000 </v>
    <v>       0.00000000       0.00000000      11.18240000 </v>
   </varray>
   <i name="volume">   1196.84853820 </i>
   <varray name="rec_basis" >
    <v>       0.08945744       0.00000000       0.00000000 </v>
    <v>       0.00000000       0.10444301       0.00000000 </v>
    <v>       0.00000000       0.00000000       0.08942624 </v>
   </varray>
  </crystal>
  <varray name="positions" >
   <v>       0.37539000       0.00017000       0.43687000 </v>
   <v>       0.87461000       0.00017000       0.18687000 </v>
   <v>       0.12539000       0.99984000       0.93687000 </v>
   <v>       0.37539000       0.00017000       0.93687000 </v>
   <v>       0.37461000       0.00017000       0.68687000 </v>
   <v>       0.87539000       0.00017000       0.93687000 </v>
   <v>       0.12461000       0.99984000       0.18687000 </v>
   <v>       0.87539000       0.00017000       0.43687000 </v>
   <v>       0.62461000       0.99984000       0.18687000 </v>
   <v>       0.12461000       0.99984000       0.68687000 </v>
   <v>       0.62461000       0.99984000       0.68687000 </v>
   <v>       0.00013000       0.29519000       0.06281000 </v>
   <v>       0.25013000       0.70481000       0.06281000 </v>
   <v>       0.24987000       0.29519000       0.31282000 </v>
   <v>       0.49987000       0.70481000       0.31282000 </v>
   <v>       0.50013000       0.29519000       0.06281000 </v>
   <v>       0.75013000       0.70481000       0.06281000 </v>
   <v>       0.74987000       0.29519000       0.31282000 </v>
   <v>       0.99987000       0.70481000       0.31282000 </v>
   <v>       0.00013000       0.29519000       0.56281000 </v>
   <v>       0.25013000       0.70481000       0.56281000 </v>
   <v>       0.24987000       0.29519000       0.81282000 </v>
   <v>       0.49987000       0.70481000       0.81282000 </v>
   <v>       0.50013000       0.29519000       0.56281000 </v>
   <v>       0.75013000       0.70481000       0.56281000 </v>
   <v>       0.74987000       0.29519000       0.81282000 </v>
   <v>       0.99987000       0.70481000       0.81282000 </v>
   <v>       0.25005000       0.32677000       0.06286000 </v>
   <v>       0.00005000       0.67323000       0.06286000 </v>
   <v>       0.49995000       0.32677000       0.31286000 </v>
   <v>       0.24995000       0.67323000       0.31286000 </v>
   <v>       0.75005000       0.32677000       0.06286000 </v>
   <v>       0.50005000       0.67323000       0.06286000 </v>
   <v>       0.99995000       0.32677000       0.31286000 </v>
   <v>       0.74995000       0.67323000       0.31286000 </v>
   <v>       0.25005000       0.32677000       0.56286000 </v>
   <v>       0.00005000       0.67323000       0.56286000 </v>
   <v>       0.49995000       0.32677000       0.81286000 </v>
   <v>       0.24995000       0.67323000       0.81286000 </v>
   <v>       0.75005000       0.32677000       0.56286000 </v>
   <v>       0.50005000       0.67323000       0.56286000 </v>
   <v>       0.99995000       0.32677000       0.81286000 </v>
   <v>       0.74995000       0.67323000       0.81286000 </v>
   <v>       0.49987000       0.07798000       0.06246000 </v>
   <v>       0.24987000       0.92202000       0.06246000 </v>
   <v>       0.25013000       0.07798000       0.31246000 </v>
   <v>       0.00013000       0.92202000       0.31246000 </v>
   <v>       0.99987000       0.07798000       0.06246000 </v>
   <v>       0.74987000       0.92202000       0.06246000 </v>
   <v>       0.75013000       0.07798000       0.31246000 </v>
   <v>       0.50013000       0.92202000       0.31246000 </v>
   <v>       0.49987000       0.07798000       0.56246000 </v>
   <v>       0.24987000       0.92202000       0.56246000 </v>
   <v>       0.25013000       0.07798000       0.81246000 </v>
   <v>       0.00013000       0.92202000       0.81246000 </v>
   <v>       0.99987000       0.07798000       0.56246000 </v>
   <v>       0.74987000       0.92202000       0.56246000 </v>
   <v>       0.75013000       0.07798000       0.81246000 </v>
   <v>       0.50013000       0.92202000       0.81246000 </v>
  </varray>
 </structure>
 <calculation>
  <scstep>
   <time name="dav">   60.75   60.82</time>
   <time name="total">   60.83   60.91</time>
   <energy>
    <i name="alphaZ">   1060.66890660 </i>
    <i name="ewald"> -30414.23335543 </i>
    <i name="hartreedc"> -12704.96802327 </i>
    <i name="XCdc">   1247.15528384 </i>
    <i name="pawpsdc">  36635.26894311 </i>
    <i name="pawaedc"> -35972.74895369 </i>
    <i name="eentropy">      0.00000000 </i>
    <i name="bandstr">   1866.14473122 </i>
    <i name="atom">  44026.03258983 </i>
    <i name="e_fr_energy">   5743.32012221 </i>
    <i name="e_wo_entrp">   5743.32012221 </i>
    <i name="e_0_energy">   5743.32012221 </i>
   </energy>
  </scstep>
  <scstep>
   <time name="dav">   61.13   61.25</time>
   <time name="total">   61.14   61.27</time>
   <energy>
    <i name="e_fr_energy">    761.98301745 </i>
    <i name="e_wo_entrp">    761.98301745 </i>
    <i name="e_0_energy">    761.98301745 </i>
   </energy>
  </scstep>
  <scstep>
   <time name="dav">   68.84   68.93</time>
   <time name="total">   68.84   68.93</time>
   <energy>
    <i name="e_fr_energy">   -241.95341279 </i>
    <i name="e_wo_entrp">   -241.95341279 </i>
    <i name="e_0_energy">   -241.95341279 </i>
   </energy>
  </scstep>
  <scstep>
   <time name="dav">   73.04   73.23</time>
   <time name="total">   73.04   73.23</time>
   <energy>
    <i name="e_fr_energy">   -336.59150047 </i>
    <i name="e_wo_entrp">   -336.59150047 </i>
    <i name="e_0_energy">   -336.59150047 </i>
   </energy>
  </scstep>
  <scstep>
   <time name="dav">   93.61   93.73</time>
   <time name="total">   94.33   94.46</time>
   <energy>
    <i name="e_fr_energy">   -343.84961351 </i>
    <i name="e_wo_entrp">   -343.84961351 </i>
    <i name="e_0_energy">   -343.84961351 </i>
   </energy>
  </scstep>
  <scstep>
   <time name="dav">   86.37   86.39</time>
   <time name="total">   87.18   87.20</time>
   <energy>
    <i name="e_fr_energy">   -288.35912211 </i>
    <i name="e_wo_entrp">   -288.35912211 </i>
    <i name="e_0_energy">   -288.35912211 </i>
   </energy>
  </scstep>
  <scstep>
   <time name="dav">   66.36   66.40</time>
   <time name="total">   67.17   67.20</time>
   <energy>
    <i name="e_fr_energy">   -290.75808504 </i>
    <i name="e_wo_entrp">   -290.75808504 </i>
    <i name="e_0_energy">   -290.75808504 </i>
   </energy>
  </scstep>
  <scstep>
   <time name="dav">   77.54   77.52</time>
   <time name="total">   78.34   78.33</time>
   <energy>
    <i name="e_fr_energy">   -289.78838040 </i>
    <i name="e_wo_entrp">   -289.78838040 </i>
    <i name="e_0_energy">   -289.78838040 </i>
   </energy>
  </scstep>
  <scstep>
   <time name="dav">   75.54   75.52</time>
   <time name="total">   76.34   76.33</time>
   <energy>
    <i name="e_fr_energy">   -289.31370169 </i>
    <i name="e_wo_entrp">   -289.31370169 </i>
    <i name="e_0_energy">   -289.31370169 </i>
   </energy>
  </scstep>
  <scstep>
   <time name="dav">   72.76   72.79</time>
   <time name="total">   73.56   73.60</time>
   <energy>
    <i name="e_fr_energy">   -289.33697358 </i>
    <i name="e_wo_entrp">   -289.33697358 </i>
    <i name="e_0_energy">   -289.33697358 </i>
   </energy>
  </scstep>
  <scstep>
   <time name="dav">   81.83   81.81</time>
   <time name="total">   82.64   82.62</time>
   <energy>
    <i name="e_fr_energy">   -289.34253037 </i>
    <i name="e_wo_entrp">   -289.34253037 </i>
    <i name="e_0_energy">   -289.34253037 </i>
   </energy>
  </scstep>
  <scstep>
   <time name="dav">   83.80   83.78</time>
   <time name="total">   84.60   84.59</time>
   <energy>
    <i name="e_fr_energy">   -289.34519450 </i>
    <i name="e_wo_entrp">   -289.34519450 </i>
    <i name="e_0_energy">   -289.34519450 </i>
   </energy>
  </scstep>
  <scstep>
   <time name="dav">   73.16   73.16</time>
   <time name="total">   73.97   73.96</time>
   <energy>
    <i name="e_fr_energy">   -289.34667603 </i>
    <i name="e_wo_entrp">   -289.34667603 </i>
    <i name="e_0_energy">   -289.34667603 </i>
   </energy>
  </scstep>
  <scstep>
   <time name="dav">   76.45   76.42</time>
   <time name="total">   77.26   77.23</time>
   <energy>
    <i name="e_fr_energy">   -289.34688430 </i>
    <i name="e_wo_entrp">   -289.34688430 </i>
    <i name="e_0_energy">   -289.34688430 </i>
   </energy>
  </scstep>
  <scstep>
   <time name="dav">   79.93   79.91</time>
   <time name="total">   80.74   80.73</time>
   <energy>
    <i name="e_fr_energy">   -289.34691479 </i>
    <i name="e_wo_entrp">   -289.34691479 </i>
    <i name="e_0_energy">   -289.34691479 </i>
   </energy>
  </scstep>
  <scstep>
   <time name="dav">   66.11   66.10</time>
   <time name="total">   66.92   66.91</time>
   <energy>
    <i name="e_fr_energy">   -289.34693339 </i>
    <i name="e_wo_entrp">   -289.34693339 </i>
    <i name="e_0_energy">   -289.34693339 </i>
   </energy>
  </scstep>
  <scstep>
   <time name="dav">   68.86   68.85</time>
   <time name="total">   69.66   69.65</time>
   <energy>
    <i name="e_fr_energy">   -289.34693516 </i>
    <i name="e_wo_entrp">   -289.34693516 </i>
    <i name="e_0_energy">   -289.34693516 </i>
   </energy>
  </scstep>
  <scstep>
   <time name="dav">   61.18   61.16</time>
   <time name="total">   61.25   61.24</time>
   <energy>
    <i name="alphaZ">   1060.66890660 </i>
    <i name="ewald"> -30414.23335543 </i>
    <i name="hartreedc"> -12943.90560859 </i>
    <i name="XCdc">   1271.97889572 </i>
    <i name="pawpsdc">  43667.63610155 </i>
    <i name="pawaedc"> -42978.52399420 </i>
    <i name="eentropy">      0.00000000 </i>
    <i name="bandstr">  -3979.00047148 </i>
    <i name="atom">  44026.03258983 </i>
    <i name="e_fr_energy">   -289.34693600 </i>
    <i name="e_wo_entrp">   -289.34693600 </i>
    <i name="e_0_energy">   -289.34693600 </i>
   </energy>
  </scstep>
  <structure>
   <crystal>
    <varray name="basis" >
     <v>      11.17850000       0.00000000       0.00000000 </v>
     <v>       0.00000000       9.57460000       0.00000000 </v>
     <v>       0.00000000       0.00000000      11.18240000 </v>
    </varray>
    <i name="volume">   1196.84853820 </i>
    <varray name="rec_basis" >
     <v>       0.08945744       0.00000000       0.00000000 </v>
     <v>       0.00000000       0.10444301       0.00000000 </v>
     <v>       0.00000000       0.00000000       0.08942624 </v>
    </varray>
   </crystal>
   <varray name="positions" >
    <v>       0.37539000       0.00017000       0.43687000 </v>
    <v>       0.87461000       0.00017000       0.18687000 </v>
    <v>       0.12539000       0.99984000       0.93687000 </v>
    <v>       0.37539000       0.00017000       0.93687000 </v>
    <v>       0.37461000       0.00017000       0.68687000 </v>
    <v>       0.87539000       0.00017000       0.93687000 </v>
    <v>       0.12461000       0.99984000       0.18687000 </v>
    <v>       0.87539000       0.00017000       0.43687000 </v>
    <v>       0.62461000       0.99984000       0.18687000 </v>
    <v>       0.12461000       0.99984000       0.68687000 </v>
    <v>       0.62461000       0.99984000       0.68687000 </v>
    <v>       0.00013000       0.29519000       0.06281000 </v>
    <v>       0.25013000       0.70481000       0.06281000 </v>
    <v>       0.24987000       0.29519000       0.31282000 </v>
    <v>       0.49987000       0.70481000       0.31282000 </v>
    <v>       0.50013000       0.29519000       0.06281000 </v>
    <v>       0.75013000       0.70481000       0.06281000 </v>
    <v>       0.74987000       0.29519000       0.31282000 </v>
    <v>       0.99987000       0.70481000       0.31282000 </v>
    <v>       0.00013000       0.29519000       0.56281000 </v>
    <v>       0.25013000       0.70481000       0.56281000 </v>
    <v>       0.24987000       0.29519000       0.81282000 </v>
    <v>       0.49987000       0.70481000       0.81282000 </v>
    <v>       0.50013000       0.29519000       0.56281000 </v>
    <v>       0.75013000       0.70481000       0.56281000 </v>
    <v>       0.74987000       0.29519000       0.81282000 </v>
    <v>       0.99987000       0.70481000       0.81282000 </v>
    <v>       0.25005000       0.32677000       0.06286000 </v>
    <v>       0.00005000       0.67323000       0.06286000 </v>
    <v>       0.49995000       0.32677000       0.31286000 </v>
    <v>       0.24995000       0.67323000       0.31286000 </v>
    <v>       0.75005000       0.32677000       0.06286000 </v>
    <v>       0.50005000       0.67323000       0.06286000 </v>
    <v>       0.99995000       0.32677000       0.31286000 </v>
    <v>       0.74995000       0.67323000       0.31286000 </v>
    <v>       0.25005000       0.32677000       0.56286000 </v>
    <v>       0.00005000       0.67323000       0.56286000 </v>
    <v>       0.49995000       0.32677000       0.81286000 </v>
    <v>       0.24995000       0.67323000       0.81286000 </v>
    <v>       0.75005000       0.32677000       0.56286000 </v>
    <v>       0.50005000       0.67323000       0.56286000 </v>
    <v>       0.99995000       0.32677000       0.81286000 </v>
    <v>       0.74995000       0.67323000       0.81286000 </v>
    <v>       0.49987000       0.07798000       0.06246000 </v>
    <v>       0.24987000       0.92202000       0.06246000 </v>
    <v>       0.25013000       0.07798000       0.31246000 </v>
    <v>       0.00013000       0.92202000       0.31246000 </v>
    <v>       0.99987000       0.07798000       0.06246000 </v>
    <v>       0.74987000       0.92202000       0.06246000 </v>
    <v>       0.75013000       0.07798000       0.31246000 </v>
    <v>       0.50013000       0.92202000       0.31246000 </v>
    <v>       0.49987000       0.07798000       0.56246000 </v>
    <v>       0.24987000       0.92202000       0.56246000 </v>
    <v>       0.25013000       0.07798000       0.81246000 </v>
    <v>       0.00013000       0.92202000       0.81246000 </v>
    <v>       0.99987000       0.07798000       0.56246000 </v>
    <v>       0.74987000       0.92202000       0.56246000 </v>
    <v>       0.75013000       0.07798000       0.81246000 </v>
    <v>       0.50013000       0.92202000       0.81246000 </v>
   </varray>
  </structure>
  <varray name="forces" >
   <v>       0.02773750       0.00203895      -0.49476790 </v>
   <v>      -0.20603874      -0.06024081      -0.30753283 </v>
   <v>       0.03686022      -0.12406219       0.00757248 </v>
   <v>       0.53959125      -0.00163558       0.50999331 </v>
   <v>       0.21270317      -0.06193690      -0.15747836 </v>
   <v>      -0.55311361      -0.00036385      -0.50895943 </v>
   <v>       1.27311414       0.12345144       0.83501069 </v>
   <v>      -0.09660856       0.00024677       1.04303525 </v>
   <v>      -1.20608490      -0.10968212      -0.15875280 </v>
   <v>      -0.73179135      -0.10805957      -0.78593578 </v>
   <v>       0.76134614       0.12516133       0.20769643 </v>
   <v>      -0.08018560       1.09793747      -0.13956926 </v>
   <v>       0.42479181      -0.02618867       0.14217435 </v>
   <v>       0.30481360      -1.01968438       0.03618065 </v>
   <v>      -0.14725668       1.02836446       0.00297157 </v>
   <v>      -0.07385446      -1.03756338      -0.02566401 </v>
   <v>      -0.29360767      -0.03497920      -0.29660831 </v>
   <v>      -0.39197442       1.01065608       0.09673188 </v>
   <v>       0.24834636      -1.02872505       0.14118992 </v>
   <v>       0.00196258      -0.05277940       0.06433860 </v>
   <v>       0.10977442      -0.03109639      -0.26830321 </v>
   <v>       0.23866705       1.06551729       0.07310856 </v>
   <v>       0.14295467       0.00230989       0.23043649 </v>
   <v>       0.02847542       0.02401349      -0.22592698 </v>
   <v>      -0.16531026       0.08876017       0.10398404 </v>
   <v>      -0.07937527      -1.04324532       0.07458825 </v>
   <v>      -0.27190003      -0.04965494      -0.08415609 </v>
   <v>      -0.32913092       0.12611452      -0.16150129 </v>
   <v>       0.04392451      -0.11384920       0.11892199 </v>
   <v>       0.22911451       0.15819535       0.06028190 </v>
   <v>      -0.30927033      -0.11344947      -0.05724453 </v>
   <v>       0.24142486       0.13360925       0.23817339 </v>
   <v>       0.04333190      -0.15803040      -0.06602179 </v>
   <v>      -0.18770339       0.05529831      -0.10904319 </v>
   <v>       0.27848547      -0.10165564      -0.02204287 </v>
   <v>      -0.09912659       0.12933847       0.25321297 </v>
   <v>       0.01782456      -0.05031997      -0.07282531 </v>
   <v>      -0.17295546       0.17909503      -0.15670552 </v>
   <v>      -0.12069953      -0.15980921      -0.04049736 </v>
   <v>       0.06976287       0.09505761      -0.19076734 </v>
   <v>       0.01055686      -0.17688907       0.15866552 </v>
   <v>       0.24968128       0.09124967       0.06706271 </v>
   <v>       0.03664002      -0.12468944      -0.02784693 </v>
   <v>       0.47750110       0.99240411       0.41386463 </v>
   <v>      -1.30364045       0.01034223      -0.25553963 </v>
   <v>      -0.70686868       0.91028164      -0.53533377 </v>
   <v>      -0.77307302       0.73170557      -0.70152080 </v>
   <v>       0.46316460      -0.86423500       0.54791391 </v>
   <v>       0.36959952       0.00563252       1.21581665 </v>
   <v>       0.86475241      -0.67748673      -0.60487161 </v>
   <v>       0.59196253      -0.98192388      -0.43289193 </v>
   <v>      -0.15409623       0.07108465       1.14919614 </v>
   <v>       0.05172213      -0.00575178       1.25572605 </v>
   <v>      -0.57845420      -0.79785811      -0.48740283 </v>
   <v>       1.22870271       0.05793416       0.20200528 </v>
   <v>      -0.01201079       0.21400982      -0.08195426 </v>
   <v>       0.13082090      -0.28276742      -0.18181706 </v>
   <v>      -0.41827635       0.94644037      -0.47060727 </v>
   <v>      -0.28770357      -0.07763759      -1.13976335 </v>
  </varray>
  <varray name="stress" >
   <v>      -8.22050400      -0.50102811      -1.35771903 </v>
   <v>      -0.50102819     -13.17425309      -0.07419606 </v>
   <v>      -1.35771922      -0.07419585      -9.89136193 </v>
  </varray>
  <energy>
   <i name="e_fr_energy">   -301.92213034 </i>
   <i name="e_wo_entrp">   -301.92213034 </i>
   <i name="e_0_energy">      0.00000000 </i>
  </energy>
  <time name="totalsc"> 1447.30 1447.81</time>
  <eigenvalues>
   <array>
    <dimension dim="1">band</dimension>
    <dimension dim="2">kpoint</dimension>
    <dimension dim="3">spin</dimension>
    <field>eigene</field>
    <field>occ</field>
    <set>
     <set comment="spin 1">
      <set comment="kpoint 1">
       <r>  -40.5102    1.0000 </r>
       <r>  -40.3121    1.0000 </r>
       <r>  -40.0468    1.0000 </r>
       <r>  -39.8228    1.0000 </r>
       <r>  -39.7367    1.0000 </r>
       <r>  -39.3746    1.0000 </r>
       <r>  -18.9653    1.0000 </r>
       <r>  -18.9598    1.0000 </r>
       <r>  -18.8934    1.0000 </r>
       <r>  -18.8871    1.0000 </r>
       <r>  -18.8862    1.0000 </r>
       <r>  -18.8845    1.0000 </r>
       <r>  -18.8757    1.0000 </r>
       <r>  -18.8683    1.0000 </r>
       <r>  -18.8127    1.0000 </r>
       <r>  -18.8050    1.0000 </r>
       <r>  -18.8037    1.0000 </r>
       <r>  -18.7959    1.0000 </r>
       <r>  -18.7953    1.0000 </r>
       <r>  -18.7848    1.0000 </r>
       <r>  -18.7721    1.0000 </r>
       <r>  -18.7714    1.0000 </r>
       <r>  -18.7614    1.0000 </r>
       <r>  -18.7517    1.0000 </r>
       <r>  -18.7450    1.0000 </r>
       <r>  -18.7312    1.0000 </r>
       <r>  -18.7208    1.0000 </r>
       <r>  -18.7125    1.0000 </r>
       <r>  -18.7038    1.0000 </r>
       <r>  -18.7006    1.0000 </r>
       <r>  -18.6965    1.0000 </r>
       <r>  -18.6905    1.0000 </r>
       <r>  -18.6869    1.0000 </r>
       <r>  -18.6830    1.0000 </r>
       <r>  -18.6817    1.0000 </r>
       <r>  -18.6811    1.0000 </r>
       <r>  -18.6789    1.0000 </r>
       <r>  -18.6744    1.0000 </r>
       <r>  -18.6737    1.0000 </r>
       <r>  -18.6721    1.0000 </r>
       <r>  -18.6689    1.0000 </r>
       <r>  -18.6647    1.0000 </r>
       <r>  -18.6595    1.0000 </r>
       <r>  -18.6426    1.0000 </r>
       <r>  -18.6067    1.0000 </r>
       <r>  -18.6057    1.0000 </r>
       <r>  -18.6010    1.0000 </r>
       <r>  -18.5927    1.0000 </r>
       <r>  -18.5907    1.0000 </r>
       <r>  -18.5882    1.0000 </r>
       <r>  -18.5848    1.0000 </r>
       <r>  -18.5822    1.0000 </r>
       <r>  -18.5780    1.0000 </r>
       <r>  -18.5535    1.0000 </r>
       <r>  -18.5353    1.0000 </r>
       <r>  -18.5331    1.0000 </r>
       <r>  -18.5283    1.0000 </r>
       <r>  -18.5194    1.0000 </r>
       <r>  -18.5186    1.0000 </r>
       <r>  -18.5145    1.0000 </r>
       <r>  -18.5138    1.0000 </r>
       <r>  -18.4908    1.0000 </r>
       <r>  -18.4849    1.0000 </r>
       <r>  -18.4810    1.0000 </r>
       <r>  -18.4787    1.0000 </r>
       <r>  -18.4689    1.0000 </r>
       <r>  -18.4496    1.0000 </r>
       <r>  -18.4434    1.0000 </r>
       <r>  -18.4303    1.0000 </r>
       <r>  -18.4294    1.0000 </r>
       <r>  -18.4245    1.0000 </r>
       <r>  -18.4172    1.0000 </r>
       <r>  -18.4169    1.0000 </r>
       <r>  -18.4114    1.0000 </r>
       <r>  -18.4023    1.0000 </r>
       <r>  -18.3922    1.0000 </r>
       <r>  -18.3399    1.0000 </r>
       <r>  -18.3287    1.0000 </r>
       <r>  -18.2946    1.0000 </r>
       <r>  -18.2834    1.0000 </r>
       <r>  -18.2686    1.0000 </r>
       <r>  -18.2574    1.0000 </r>
       <r>  -18.2309    1.0000 </r>
       <r>  -18.2208    1.0000 </r>
       <r>  -18.2034    1.0000 </r>
       <r>  -18.1920    1.0000 </r>
       <r>  -13.6238    1.0000 </r>
       <r>  -13.5141    1.0000 </r>
       <r>  -13.4456    1.0000 </r>
       <r>  -13.4277    1.0000 </r>
       <r>  -12.9125    1.0000 </r>
       <r>  -12.8116    1.0000 </r>
       <r>  -12.7875    1.0000 </r>
       <r>  -12.7691    1.0000 </r>
       <r>  -12.7530    1.0000 </r>
       <r>  -12.7400    1.0000 </r>
       <r>  -12.6488    1.0000 </r>
       <r>  -12.6069    1.0000 </r>
       <r>  -12.1032    1.0000 </r>
       <r>  -12.0607    1.0000 </r>
       <r>  -12.0205    1.0000 </r>
       <r>  -11.9557    1.0000 </r>
       <r>   -9.3612    1.0000 </r>
       <r>   -9.0657    1.0000 </r>
       <r>   -8.5933    1.0000 </r>
       <r>   -8.5502    1.0000 </r>
       <r>   -8.4931    1.0000 </r>
       <r>   -8.4507    1.0000 </r>
       <r>   -8.3698    1.0000 </r>
       <r>   -8.3271    1.0000 </r>
       <r>   -8.2674    1.0000 </r>
       <r>   -8.2284    1.0000 </r>
       <r>   -8.0667    1.0000 </r>
       <r>   -8.0522    1.0000 </r>
       <r>   -8.0286    1.0000 </r>
       <r>   -8.0130    1.0000 </r>
       <r>   -7.3890    1.0000 </r>
       <r>   -7.3797    1.0000 </r>
       <r>   -6.4207    1.0000 </r>
       <r>   -6.4114    1.0000 </r>
       <r>   -6.3753    1.0000 </r>
       <r>   -6.3667    1.0000 </r>
       <r>   -5.5564    1.0000 </r>
       <r>   -5.5024    1.0000 </r>
       <r>   -5.4892    1.0000 </r>
       <r>   -5.3786    1.0000 </r>
       <r>   -5.3411    1.0000 </r>
       <r>   -5.2858    1.0000 </r>
       <r>   -5.2560    1.0000 </r>
       <r>   -5.1774    1.0000 </r>
       <r>   -5.1013    1.0000 </r>
       <r>   -5.0405    1.0000 </r>
       <r>   -3.8374    1.0000 </r>
       <r>   -3.6880    1.0000 </r>
       <r>   -1.5320    1.0000 </r>
       <r>   -1.3207    1.0000 </r>
       <r>   -1.1632    1.0000 </r>
       <r>   -1.0069    1.0000 </r>
       <r>   -0.6159    1.0000 </r>
       <r>   -0.5872    1.0000 </r>
       <r>   -0.5647    1.0000 </r>
       <r>   -0.4901    1.0000 </r>
       <r>   -0.2249    1.0000 </r>
       <r>   -0.2190    1.0000 </r>
       <r>   -0.2054    1.0000 </r>
       <r>   -0.1700    1.0000 </r>
       <r>   -0.0436    1.0000 </r>
       <r>    0.0476    1.0000 </r>
       <r>    0.1337    1.0000 </r>
       <r>    0.2575    1.0000 </r>
       <r>    0.3436    1.0000 </r>
       <r>    0.4480    1.0000 </r>
       <r>    0.5029    1.0000 </r>
       <r>    0.5264    1.0000 </r>
       <r>    0.5532    1.0000 </r>
       <r>    0.6220    1.0000 </r>
       <r>    0.6712    1.0000 </r>
       <r>    0.7037    1.0000 </r>
       <r>    0.7535    1.0000 </r>
       <r>    0.7826    1.0000 </r>
       <r>    0.8311    1.0000 </r>
       <r>    0.8747    1.0000 </r>
       <r>    0.9270    1.0000 </r>
       <r>    0.9366    1.0000 </r>
       <r>    0.9802    1.0000 </r>
       <r>    1.0026    1.0000 </r>
       <r>    1.0378    1.0000 </r>
       <r>    1.1082    1.0000 </r>
       <r>    1.1535    1.0000 </r>
       <r>    1.1763    1.0000 </r>
       <r>    1.2310    1.0000 </r>
       <r>    1.2777    1.0000 </r>
       <r>    1.3472    1.0000 </r>
       <r>    1.4089    1.0000 </r>
       <r>    1.4103    1.0000 </r>
       <r>    1.4524    1.0000 </r>
       <r>    1.5042    1.0000 </r>
       <r>    1.5776    1.0000 </r>
       <r>    1.6272    1.0000 </r>
       <r>    1.6943    1.0000 </r>
       <r>    1.7205    1.0000 </r>
       <r>    1.7983    1.0000 </r>
       <r>    1.8152    1.0000 </r>
       <r>    1.9096    1.0000 </r>
       <r>    1.9578    1.0000 </r>
       <r>    1.9907    1.0000 </r>
       <r>    2.0588    1.0000 </r>
       <r>    2.1252    1.0000 </r>
       <r>    2.1901    1.0000 </r>
       <r>    2.2308    1.0000 </r>
       <r>    2.2807    1.0000 </r>
       <r>    2.3447    1.0000 </r>
       <r>    2.4034    1.0000 </r>
       <r>    2.5151    1.0000 </r>
       <r>    2.5277    1.0000 </r>
       <r>    2.5364    1.0000 </r>
       <r>    2.5558    1.0000 </r>
       <r>    2.5775    1.0000 </r>
       <r>    2.5945    1.0000 </r>
       <r>    2.6422    1.0000 </r>
       <r>    2.6569    1.0000 </r>
       <r>    2.6934    1.0000 </r>
       <r>    2.7296    1.0000 </r>
       <r>    2.7468    1.0000 </r>
       <r>    2.8249    1.0000 </r>
       <r>    2.8537    1.0000 </r>
       <r>    2.8744    1.0000 </r>
       <r>    2.8894    1.0000 </r>
       <r>    2.9339    1.0000 </r>
       <r>    2.9659    1.0000 </r>
       <r>    2.9993    1.0000 </r>
       <r>    3.0243    1.0000 </r>
       <r>    3.0861    1.0000 </r>
       <r>    3.0910    1.0000 </r>
       <r>    3.1131    1.0000 </r>
       <r>    3.1234    1.0000 </r>
       <r>    3.1757    1.0000 </r>
       <r>    3.2267    1.0000 </r>
       <r>    3.2441    1.0000 </r>
       <r>    3.3037    1.0000 </r>
       <r>    3.3184    1.0000 </r>
       <r>    3.3691    1.0000 </r>
       <r>    3.4535    1.0000 </r>
       <r>    3.5305    1.0000 </r>
       <r>    3.6542    1.0000 </r>
       <r>    3.7728    1.0000 </r>
       <r>    4.1386    1.0000 </r>
       <r>    4.1648    1.0000 </r>
       <r>    4.2009    1.0000 </r>
       <r>    4.2185    1.0000 </r>
       <r>    4.9714    0.0000 </r>
       <r>    4.9915    0.0000 </r>
       <r>    5.1622    0.0000 </r>
       <r>    5.1838    0.0000 </r>
       <r>    5.6919    0.0000 </r>
       <r>    5.7106    0.0000 </r>
       <r>    5.8079    0.0000 </r>
       <r>    5.8351    0.0000 </r>
       <r>    6.0734    0.0000 </r>
       <r>    6.0812    0.0000 </r>
       <r>    6.1138    0.0000 </r>
       <r>    6.1314    0.0000 </r>
       <r>    6.2000    0.0000 </r>
       <r>    6.2085    0.0000 </r>
       <r>    6.2362    0.0000 </r>
       <r>    6.2490    0.0000 </r>
       <r>    6.9887    0.0000 </r>
       <r>    7.0613    0.0000 </r>
       <r>    7.2779    0.0000 </r>
       <r>    7.3113    0.0000 </r>
       <r>    7.6592    0.0000 </r>
       <r>    7.7842    0.0000 </r>
       <r>    7.7927    0.0000 </r>
       <r>    7.9215    0.0000 </r>
       <r>    7.9314    0.0000 </r>
       <r>    7.9943    0.0000 </r>
       <r>    8.1026    0.0000 </r>
       <r>    8.2049    0.0000 </r>
       <r>    8.2579    0.0000 </r>
       <r>    8.6135    0.0000 </r>
       <r>    8.6427    0.0000 </r>
       <r>    8.7506    0.0000 </r>
       <r>    8.7778    0.0000 </r>
       <r>    8.7990    0.0000 </r>
       <r>    8.9007    0.0000 </r>
       <r>    8.9193    0.0000 </r>
       <r>    9.0082    0.0000 </r>
       <r>    9.0340    0.0000 </r>
       <r>    9.0424    0.0000 </r>
       <r>    9.0765    0.0000 </r>
       <r>    9.1005    0.0000 </r>
       <r>    9.1511    0.0000 </r>
       <r>    9.2002    0.0000 </r>
       <r>    9.2204    0.0000 </r>
       <r>    9.3901    0.0000 </r>
       <r>    9.4106    0.0000 </r>
       <r>    9.4766    0.0000 </r>
       <r>    9.4966    0.0000 </r>
       <r>    9.7509    0.0000 </r>
       <r>    9.7732    0.0000 </r>
      </set>
      <set comment="kpoint 2">
       <r>  -40.5102    1.0000 </r>
       <r>  -40.3121    1.0000 </r>
       <r>  -40.0468    1.0000 </r>
       <r>  -39.8228    1.0000 </r>
       <r>  -39.7367    1.0000 </r>
       <r>  -39.3746    1.0000 </r>
       <r>  -18.9653    1.0000 </r>
       <r>  -18.9598    1.0000 </r>
       <r>  -18.8933    1.0000 </r>
       <r>  -18.8870    1.0000 </r>
       <r>  -18.8862    1.0000 </r>
       <r>  -18.8844    1.0000 </r>
       <r>  -18.8759    1.0000 </r>
       <r>  -18.8682    1.0000 </r>
       <r>  -18.8127    1.0000 </r>
       <r>  -18.8050    1.0000 </r>
       <r>  -18.8037    1.0000 </r>
       <r>  -18.7959    1.0000 </r>
       <r>  -18.7953    1.0000 </r>
       <r>  -18.7848    1.0000 </r>
       <r>  -18.7721    1.0000 </r>
       <r>  -18.7714    1.0000 </r>
       <r>  -18.7613    1.0000 </r>
       <r>  -18.7516    1.0000 </r>
       <r>  -18.7449    1.0000 </r>
       <r>  -18.7313    1.0000 </r>
       <r>  -18.7207    1.0000 </r>
       <r>  -18.7124    1.0000 </r>
       <r>  -18.7038    1.0000 </r>
       <r>  -18.7006    1.0000 </r>
       <r>  -18.6965    1.0000 </r>
       <r>  -18.6913    1.0000 </r>
       <r>  -18.6863    1.0000 </r>
       <r>  -18.6826    1.0000 </r>
       <r>  -18.6822    1.0000 </r>
       <r>  -18.6811    1.0000 </r>
       <r>  -18.6798    1.0000 </r>
       <r>  -18.6746    1.0000 </r>
       <r>  -18.6733    1.0000 </r>
       <r>  -18.6719    1.0000 </r>
       <r>  -18.6685    1.0000 </r>
       <r>  -18.6649    1.0000 </r>
       <r>  -18.6590    1.0000 </r>
       <r>  -18.6426    1.0000 </r>
       <r>  -18.6068    1.0000 </r>
       <r>  -18.6057    1.0000 </r>
       <r>  -18.6011    1.0000 </r>
       <r>  -18.5928    1.0000 </r>
       <r>  -18.5907    1.0000 </r>
       <r>  -18.5882    1.0000 </r>
       <r>  -18.5848    1.0000 </r>
       <r>  -18.5822    1.0000 </r>
       <r>  -18.5780    1.0000 </r>
       <r>  -18.5535    1.0000 </r>
       <r>  -18.5353    1.0000 </r>
       <r>  -18.5331    1.0000 </r>
       <r>  -18.5283    1.0000 </r>
       <r>  -18.5194    1.0000 </r>
       <r>  -18.5186    1.0000 </r>
       <r>  -18.5145    1.0000 </r>
       <r>  -18.5138    1.0000 </r>
       <r>  -18.4908    1.0000 </r>
       <r>  -18.4849    1.0000 </r>
       <r>  -18.4810    1.0000 </r>
       <r>  -18.4787    1.0000 </r>
       <r>  -18.4689    1.0000 </r>
       <r>  -18.4496    1.0000 </r>
       <r>  -18.4434    1.0000 </r>
       <r>  -18.4303    1.0000 </r>
       <r>  -18.4294    1.0000 </r>
       <r>  -18.4245    1.0000 </r>
       <r>  -18.4172    1.0000 </r>
       <r>  -18.4169    1.0000 </r>
       <r>  -18.4115    1.0000 </r>
       <r>  -18.4021    1.0000 </r>
       <r>  -18.3924    1.0000 </r>
       <r>  -18.3399    1.0000 </r>
       <r>  -18.3287    1.0000 </r>
       <r>  -18.2946    1.0000 </r>
       <r>  -18.2834    1.0000 </r>
       <r>  -18.2686    1.0000 </r>
       <r>  -18.2574    1.0000 </r>
       <r>  -18.2309    1.0000 </r>
       <r>  -18.2208    1.0000 </r>
       <r>  -18.2034    1.0000 </r>
       <r>  -18.1920    1.0000 </r>
       <r>  -13.6234    1.0000 </r>
       <r>  -13.5143    1.0000 </r>
       <r>  -13.4454    1.0000 </r>
       <r>  -13.4280    1.0000 </r>
       <r>  -12.9087    1.0000 </r>
       <r>  -12.8078    1.0000 </r>
       <r>  -12.8006    1.0000 </r>
       <r>  -12.7734    1.0000 </r>
       <r>  -12.7637    1.0000 </r>
       <r>  -12.7161    1.0000 </r>
       <r>  -12.6524    1.0000 </r>
       <r>  -12.6069    1.0000 </r>
       <r>  -12.1031    1.0000 </r>
       <r>  -12.0606    1.0000 </r>
       <r>  -12.0206    1.0000 </r>
       <r>  -11.9557    1.0000 </r>
       <r>   -9.2174    1.0000 </r>
       <r>   -9.0600    1.0000 </r>
       <r>   -8.9420    1.0000 </r>
       <r>   -8.7818    1.0000 </r>
       <r>   -8.4319    1.0000 </r>
       <r>   -8.4234    1.0000 </r>
       <r>   -8.2950    1.0000 </r>
       <r>   -8.2862    1.0000 </r>
       <r>   -8.2270    1.0000 </r>
       <r>   -8.2236    1.0000 </r>
       <r>   -8.0922    1.0000 </r>
       <r>   -8.0827    1.0000 </r>
       <r>   -7.7795    1.0000 </r>
       <r>   -7.6666    1.0000 </r>
       <r>   -7.6626    1.0000 </r>
       <r>   -7.5489    1.0000 </r>
       <r>   -6.0616    1.0000 </r>
       <r>   -6.0542    1.0000 </r>
       <r>   -5.9366    1.0000 </r>
       <r>   -5.9012    1.0000 </r>
       <r>   -5.8633    1.0000 </r>
       <r>   -5.8264    1.0000 </r>
       <r>   -5.7510    1.0000 </r>
       <r>   -5.7148    1.0000 </r>
       <r>   -5.6675    1.0000 </r>
       <r>   -5.6074    1.0000 </r>
       <r>   -5.5426    1.0000 </r>
       <r>   -5.4428    1.0000 </r>
       <r>   -4.5327    1.0000 </r>
       <r>   -4.3724    1.0000 </r>
       <r>   -4.3719    1.0000 </r>
       <r>   -4.2026    1.0000 </r>
       <r>   -1.3035    1.0000 </r>
       <r>   -1.0944    1.0000 </r>
       <r>   -0.9350    1.0000 </r>
       <r>   -0.7583    1.0000 </r>
       <r>   -0.5117    1.0000 </r>
       <r>   -0.3330    1.0000 </r>
       <r>   -0.2204    1.0000 </r>
       <r>   -0.0771    1.0000 </r>
       <r>   -0.0015    1.0000 </r>
       <r>    0.0365    1.0000 </r>
       <r>    0.0628    1.0000 </r>
       <r>    0.0901    1.0000 </r>
       <r>    0.1358    1.0000 </r>
       <r>    0.1842    1.0000 </r>
       <r>    0.2162    1.0000 </r>
       <r>    0.3242    1.0000 </r>
       <r>    0.3693    1.0000 </r>
       <r>    0.4240    1.0000 </r>
       <r>    0.4359    1.0000 </r>
       <r>    0.4539    1.0000 </r>
       <r>    0.5256    1.0000 </r>
       <r>    0.5519    1.0000 </r>
       <r>    0.5822    1.0000 </r>
       <r>    0.6652    1.0000 </r>
       <r>    0.6769    1.0000 </r>
       <r>    0.7547    1.0000 </r>
       <r>    0.7937    1.0000 </r>
       <r>    0.8527    1.0000 </r>
       <r>    0.9148    1.0000 </r>
       <r>    0.9837    1.0000 </r>
       <r>    1.0183    1.0000 </r>
       <r>    1.0776    1.0000 </r>
       <r>    1.0985    1.0000 </r>
       <r>    1.1210    1.0000 </r>
       <r>    1.1588    1.0000 </r>
       <r>    1.2341    1.0000 </r>
       <r>    1.2487    1.0000 </r>
       <r>    1.2879    1.0000 </r>
       <r>    1.3264    1.0000 </r>
       <r>    1.3874    1.0000 </r>
       <r>    1.4153    1.0000 </r>
       <r>    1.4230    1.0000 </r>
       <r>    1.4549    1.0000 </r>
       <r>    1.5354    1.0000 </r>
       <r>    1.5531    1.0000 </r>
       <r>    1.5751    1.0000 </r>
       <r>    1.6071    1.0000 </r>
       <r>    1.6538    1.0000 </r>
       <r>    1.7527    1.0000 </r>
       <r>    1.8000    1.0000 </r>
       <r>    1.8433    1.0000 </r>
       <r>    1.9074    1.0000 </r>
       <r>    1.9246    1.0000 </r>
       <r>    1.9648    1.0000 </r>
       <r>    1.9996    1.0000 </r>
       <r>    2.0473    1.0000 </r>
       <r>    2.1027    1.0000 </r>
       <r>    2.1427    1.0000 </r>
       <r>    2.1947    1.0000 </r>
       <r>    2.2482    1.0000 </r>
       <r>    2.2854    1.0000 </r>
       <r>    2.3269    1.0000 </r>
       <r>    2.3910    1.0000 </r>
       <r>    2.4377    1.0000 </r>
       <r>    2.4800    1.0000 </r>
       <r>    2.4811    1.0000 </r>
       <r>    2.5485    1.0000 </r>
       <r>    2.5589    1.0000 </r>
       <r>    2.6319    1.0000 </r>
       <r>    2.6451    1.0000 </r>
       <r>    2.7010    1.0000 </r>
       <r>    2.7318    1.0000 </r>
       <r>    2.7411    1.0000 </r>
       <r>    2.7772    1.0000 </r>
       <r>    2.8365    1.0000 </r>
       <r>    2.8806    1.0000 </r>
       <r>    2.8997    1.0000 </r>
       <r>    2.9217    1.0000 </r>
       <r>    2.9391    1.0000 </r>
       <r>    2.9975    1.0000 </r>
       <r>    3.0406    1.0000 </r>
       <r>    3.0713    1.0000 </r>
       <r>    3.1048    1.0000 </r>
       <r>    3.1803    1.0000 </r>
       <r>    3.2827    1.0000 </r>
       <r>    3.3282    1.0000 </r>
       <r>    3.3815    1.0000 </r>
       <r>    3.4073    1.0000 </r>
       <r>    3.4531    1.0000 </r>
       <r>    3.5051    1.0000 </r>
       <r>    3.5260    1.0000 </r>
       <r>    3.5882    1.0000 </r>
       <r>    3.5961    1.0000 </r>
       <r>    3.7148    1.0000 </r>
       <r>    3.7595    1.0000 </r>
       <r>    3.8532    1.0000 </r>
       <r>    5.5196    0.0000 </r>
       <r>    5.5338    0.0000 </r>
       <r>    5.6826    0.0000 </r>
       <r>    5.6955    0.0000 </r>
       <r>    5.7229    0.0000 </r>
       <r>    5.7306    0.0000 </r>
       <r>    5.8708    0.0000 </r>
       <r>    5.8848    0.0000 </r>
       <r>    7.1250    0.0000 </r>
       <r>    7.1571    0.0000 </r>
       <r>    7.2277    0.0000 </r>
       <r>    7.3067    0.0000 </r>
       <r>    7.3163    0.0000 </r>
       <r>    7.3328    0.0000 </r>
       <r>    7.3994    0.0000 </r>
       <r>    7.4116    0.0000 </r>
       <r>    7.4272    0.0000 </r>
       <r>    7.5035    0.0000 </r>
       <r>    7.5745    0.0000 </r>
       <r>    7.5878    0.0000 </r>
       <r>    7.7825    0.0000 </r>
       <r>    7.7868    0.0000 </r>
       <r>    7.8000    0.0000 </r>
       <r>    7.8366    0.0000 </r>
       <r>    7.8566    0.0000 </r>
       <r>    7.8770    0.0000 </r>
       <r>    7.8987    0.0000 </r>
       <r>    7.9283    0.0000 </r>
       <r>    7.9565    0.0000 </r>
       <r>    7.9634    0.0000 </r>
       <r>    8.0052    0.0000 </r>
       <r>    8.0859    0.0000 </r>
       <r>    8.1845    0.0000 </r>
       <r>    8.2667    0.0000 </r>
       <r>    8.4076    0.0000 </r>
       <r>    8.4552    0.0000 </r>
       <r>    8.6492    0.0000 </r>
       <r>    8.7016    0.0000 </r>
       <r>    8.7203    0.0000 </r>
       <r>    8.7301    0.0000 </r>
       <r>    8.7437    0.0000 </r>
       <r>    8.8263    0.0000 </r>
       <r>    8.8991    0.0000 </r>
       <r>    8.9086    0.0000 </r>
       <r>    9.0706    0.0000 </r>
       <r>    9.2648    0.0000 </r>
       <r>    9.2856    0.0000 </r>
       <r>    9.3336    0.0000 </r>
       <r>    9.5533    0.0000 </r>
       <r>    9.6100    0.0000 </r>
      </set>
      <set comment="kpoint 3">
       <r>  -40.5102    1.0000 </r>
       <r>  -40.3121    1.0000 </r>
       <r>  -40.0468    1.0000 </r>
       <r>  -39.8228    1.0000 </r>
       <r>  -39.7367    1.0000 </r>
       <r>  -39.3746    1.0000 </r>
       <r>  -18.9654    1.0000 </r>
       <r>  -18.9597    1.0000 </r>
       <r>  -18.8934    1.0000 </r>
       <r>  -18.8871    1.0000 </r>
       <r>  -18.8862    1.0000 </r>
       <r>  -18.8845    1.0000 </r>
       <r>  -18.8757    1.0000 </r>
       <r>  -18.8684    1.0000 </r>
       <r>  -18.8127    1.0000 </r>
       <r>  -18.8050    1.0000 </r>
       <r>  -18.8037    1.0000 </r>
       <r>  -18.7959    1.0000 </r>
       <r>  -18.7953    1.0000 </r>
       <r>  -18.7849    1.0000 </r>
       <r>  -18.7721    1.0000 </r>
       <r>  -18.7714    1.0000 </r>
       <r>  -18.7614    1.0000 </r>
       <r>  -18.7517    1.0000 </r>
       <r>  -18.7450    1.0000 </r>
       <r>  -18.7312    1.0000 </r>
       <r>  -18.7208    1.0000 </r>
       <r>  -18.7125    1.0000 </r>
       <r>  -18.7038    1.0000 </r>
       <r>  -18.7006    1.0000 </r>
       <r>  -18.6965    1.0000 </r>
       <r>  -18.6905    1.0000 </r>
       <r>  -18.6869    1.0000 </r>
       <r>  -18.6830    1.0000 </r>
       <r>  -18.6817    1.0000 </r>
       <r>  -18.6811    1.0000 </r>
       <r>  -18.6789    1.0000 </r>
       <r>  -18.6744    1.0000 </r>
       <r>  -18.6737    1.0000 </r>
       <r>  -18.6721    1.0000 </r>
       <r>  -18.6689    1.0000 </r>
       <r>  -18.6647    1.0000 </r>
       <r>  -18.6595    1.0000 </r>
       <r>  -18.6426    1.0000 </r>
       <r>  -18.6067    1.0000 </r>
       <r>  -18.6057    1.0000 </r>
       <r>  -18.6010    1.0000 </r>
       <r>  -18.5927    1.0000 </r>
       <r>  -18.5907    1.0000 </r>
       <r>  -18.5882    1.0000 </r>
       <r>  -18.5848    1.0000 </r>
       <r>  -18.5824    1.0000 </r>
       <r>  -18.5779    1.0000 </r>
       <r>  -18.5535    1.0000 </r>
       <r>  -18.5353    1.0000 </r>
       <r>  -18.5331    1.0000 </r>
       <r>  -18.5283    1.0000 </r>
       <r>  -18.5194    1.0000 </r>
       <r>  -18.5186    1.0000 </r>
       <r>  -18.5145    1.0000 </r>
       <r>  -18.5138    1.0000 </r>
       <r>  -18.4908    1.0000 </r>
       <r>  -18.4849    1.0000 </r>
       <r>  -18.4810    1.0000 </r>
       <r>  -18.4787    1.0000 </r>
       <r>  -18.4689    1.0000 </r>
       <r>  -18.4496    1.0000 </r>
       <r>  -18.4434    1.0000 </r>
       <r>  -18.4303    1.0000 </r>
       <r>  -18.4294    1.0000 </r>
       <r>  -18.4245    1.0000 </r>
       <r>  -18.4172    1.0000 </r>
       <r>  -18.4169    1.0000 </r>
       <r>  -18.4114    1.0000 </r>
       <r>  -18.4023    1.0000 </r>
       <r>  -18.3922    1.0000 </r>
       <r>  -18.3399    1.0000 </r>
       <r>  -18.3287    1.0000 </r>
       <r>  -18.2946    1.0000 </r>
       <r>  -18.2834    1.0000 </r>
       <r>  -18.2686    1.0000 </r>
       <r>  -18.2574    1.0000 </r>
       <r>  -18.2309    1.0000 </r>
       <r>  -18.2208    1.0000 </r>
       <r>  -18.2034    1.0000 </r>
       <r>  -18.1920    1.0000 </r>
       <r>  -13.6235    1.0000 </r>
       <r>  -13.5142    1.0000 </r>
       <r>  -13.4455    1.0000 </r>
       <r>  -13.4278    1.0000 </r>
       <r>  -12.9118    1.0000 </r>
       <r>  -12.8118    1.0000 </r>
       <r>  -12.7873    1.0000 </r>
       <r>  -12.7690    1.0000 </r>
       <r>  -12.7532    1.0000 </r>
       <r>  -12.7399    1.0000 </r>
       <r>  -12.6492    1.0000 </r>
       <r>  -12.6077    1.0000 </r>
       <r>  -12.1026    1.0000 </r>
       <r>  -12.0613    1.0000 </r>
       <r>  -12.0206    1.0000 </r>
       <r>  -11.9570    1.0000 </r>
       <r>   -9.3503    1.0000 </r>
       <r>   -9.0735    1.0000 </r>
       <r>   -8.6118    1.0000 </r>
       <r>   -8.5683    1.0000 </r>
       <r>   -8.5100    1.0000 </r>
       <r>   -8.4673    1.0000 </r>
       <r>   -8.3490    1.0000 </r>
       <r>   -8.3070    1.0000 </r>
       <r>   -8.2484    1.0000 </r>
       <r>   -8.2101    1.0000 </r>
       <r>   -8.0708    1.0000 </r>
       <r>   -8.0562    1.0000 </r>
       <r>   -8.0315    1.0000 </r>
       <r>   -8.0158    1.0000 </r>
       <r>   -7.3917    1.0000 </r>
       <r>   -7.3825    1.0000 </r>
       <r>   -6.4121    1.0000 </r>
       <r>   -6.3994    1.0000 </r>
       <r>   -6.3657    1.0000 </r>
       <r>   -6.3572    1.0000 </r>
       <r>   -5.5739    1.0000 </r>
       <r>   -5.5281    1.0000 </r>
       <r>   -5.4917    1.0000 </r>
       <r>   -5.4153    1.0000 </r>
       <r>   -5.3637    1.0000 </r>
       <r>   -5.2874    1.0000 </r>
       <r>   -5.2166    1.0000 </r>
       <r>   -5.1448    1.0000 </r>
       <r>   -5.0555    1.0000 </r>
       <r>   -4.9961    1.0000 </r>
       <r>   -3.9133    1.0000 </r>
       <r>   -3.5999    1.0000 </r>
       <r>   -1.4158    1.0000 </r>
       <r>   -1.3194    1.0000 </r>
       <r>   -1.2775    1.0000 </r>
       <r>   -1.0650    1.0000 </r>
       <r>   -0.4950    1.0000 </r>
       <r>   -0.4786    1.0000 </r>
       <r>   -0.4636    1.0000 </r>
       <r>   -0.4252    1.0000 </r>
       <r>   -0.4168    1.0000 </r>
       <r>   -0.3989    1.0000 </r>
       <r>   -0.3694    1.0000 </r>
       <r>   -0.2870    1.0000 </r>
       <r>   -0.1691    1.0000 </r>
       <r>   -0.1309    1.0000 </r>
       <r>   -0.0098    1.0000 </r>
       <r>    0.0075    1.0000 </r>
       <r>    0.1778    1.0000 </r>
       <r>    0.3022    1.0000 </r>
       <r>    0.3297    1.0000 </r>
       <r>    0.4102    1.0000 </r>
       <r>    0.4363    1.0000 </r>
       <r>    0.5496    1.0000 </r>
       <r>    0.5881    1.0000 </r>
       <r>    0.6258    1.0000 </r>
       <r>    0.7094    1.0000 </r>
       <r>    0.7347    1.0000 </r>
       <r>    0.7643    1.0000 </r>
       <r>    0.8116    1.0000 </r>
       <r>    0.8997    1.0000 </r>
       <r>    0.9536    1.0000 </r>
       <r>    1.0312    1.0000 </r>
       <r>    1.1278    1.0000 </r>
       <r>    1.2004    1.0000 </r>
       <r>    1.2230    1.0000 </r>
       <r>    1.2537    1.0000 </r>
       <r>    1.3222    1.0000 </r>
       <r>    1.3565    1.0000 </r>
       <r>    1.4012    1.0000 </r>
       <r>    1.4426    1.0000 </r>
       <r>    1.4738    1.0000 </r>
       <r>    1.5334    1.0000 </r>
       <r>    1.5856    1.0000 </r>
       <r>    1.6619    1.0000 </r>
       <r>    1.6696    1.0000 </r>
       <r>    1.6884    1.0000 </r>
       <r>    1.7300    1.0000 </r>
       <r>    1.8766    1.0000 </r>
       <r>    1.8862    1.0000 </r>
       <r>    1.9199    1.0000 </r>
       <r>    2.0321    1.0000 </r>
       <r>    2.0821    1.0000 </r>
       <r>    2.0929    1.0000 </r>
       <r>    2.1274    1.0000 </r>
       <r>    2.2372    1.0000 </r>
       <r>    2.2432    1.0000 </r>
       <r>    2.3020    1.0000 </r>
       <r>    2.4046    1.0000 </r>
       <r>    2.4506    1.0000 </r>
       <r>    2.4583    1.0000 </r>
       <r>    2.5094    1.0000 </r>
       <r>    2.5312    1.0000 </r>
       <r>    2.5382    1.0000 </r>
       <r>    2.5454    1.0000 </r>
       <r>    2.5681    1.0000 </r>
       <r>    2.5765    1.0000 </r>
       <r>    2.5828    1.0000 </r>
       <r>    2.6094    1.0000 </r>
       <r>    2.6457    1.0000 </r>
       <r>    2.7327    1.0000 </r>
       <r>    2.7617    1.0000 </r>
       <r>    2.7907    1.0000 </r>
       <r>    2.8217    1.0000 </r>
       <r>    2.8568    1.0000 </r>
       <r>    2.8750    1.0000 </r>
       <r>    2.9273    1.0000 </r>
       <r>    2.9344    1.0000 </r>
       <r>    2.9525    1.0000 </r>
       <r>    2.9966    1.0000 </r>
       <r>    3.0217    1.0000 </r>
       <r>    3.0594    1.0000 </r>
       <r>    3.1775    1.0000 </r>
       <r>    3.2507    1.0000 </r>
       <r>    3.2819    1.0000 </r>
       <r>    3.3141    1.0000 </r>
       <r>    3.3437    1.0000 </r>
       <r>    3.3603    1.0000 </r>
       <r>    3.3909    1.0000 </r>
       <r>    3.4338    1.0000 </r>
       <r>    3.4957    1.0000 </r>
       <r>    3.5570    1.0000 </r>
       <r>    3.6469    1.0000 </r>
       <r>    3.7198    1.0000 </r>
       <r>    4.1885    1.0000 </r>
       <r>    4.2149    1.0000 </r>
       <r>    4.2506    1.0000 </r>
       <r>    4.2706    1.0000 </r>
       <r>    5.0505    0.0000 </r>
       <r>    5.0713    0.0000 </r>
       <r>    5.2242    0.0000 </r>
       <r>    5.2464    0.0000 </r>
       <r>    5.6996    0.0000 </r>
       <r>    5.7184    0.0000 </r>
       <r>    5.8149    0.0000 </r>
       <r>    5.8441    0.0000 </r>
       <r>    6.1271    0.0000 </r>
       <r>    6.1313    0.0000 </r>
       <r>    6.1622    0.0000 </r>
       <r>    6.1692    0.0000 </r>
       <r>    6.2133    0.0000 </r>
       <r>    6.2259    0.0000 </r>
       <r>    6.2530    0.0000 </r>
       <r>    6.2705    0.0000 </r>
       <r>    6.6876    0.0000 </r>
       <r>    6.7528    0.0000 </r>
       <r>    6.9430    0.0000 </r>
       <r>    7.0323    0.0000 </r>
       <r>    7.1345    0.0000 </r>
       <r>    7.1775    0.0000 </r>
       <r>    7.3335    0.0000 </r>
       <r>    7.5514    0.0000 </r>
       <r>    7.6511    0.0000 </r>
       <r>    7.7938    0.0000 </r>
       <r>    7.8731    0.0000 </r>
       <r>    7.9684    0.0000 </r>
       <r>    8.0646    0.0000 </r>
       <r>    8.2924    0.0000 </r>
       <r>    8.3493    0.0000 </r>
       <r>    8.3919    0.0000 </r>
       <r>    8.6344    0.0000 </r>
       <r>    8.7534    0.0000 </r>
       <r>    8.9119    0.0000 </r>
       <r>    8.9414    0.0000 </r>
       <r>    8.9542    0.0000 </r>
       <r>    8.9883    0.0000 </r>
       <r>    9.0241    0.0000 </r>
       <r>    9.0801    0.0000 </r>
       <r>    9.0991    0.0000 </r>
       <r>    9.1131    0.0000 </r>
       <r>    9.1360    0.0000 </r>
       <r>    9.1737    0.0000 </r>
       <r>    9.4427    0.0000 </r>
       <r>    9.4525    0.0000 </r>
       <r>    9.5774    0.0000 </r>
       <r>    9.7121    0.0000 </r>
       <r>    9.7606    0.0000 </r>
       <r>    9.8418    0.0000 </r>
      </set>
      <set comment="kpoint 4">
       <r>  -40.5102    1.0000 </r>
       <r>  -40.3121    1.0000 </r>
       <r>  -40.0468    1.0000 </r>
       <r>  -39.8228    1.0000 </r>
       <r>  -39.7367    1.0000 </r>
       <r>  -39.3746    1.0000 </r>
       <r>  -18.9654    1.0000 </r>
       <r>  -18.9597    1.0000 </r>
       <r>  -18.8933    1.0000 </r>
       <r>  -18.8870    1.0000 </r>
       <r>  -18.8862    1.0000 </r>
       <r>  -18.8844    1.0000 </r>
       <r>  -18.8759    1.0000 </r>
       <r>  -18.8682    1.0000 </r>
       <r>  -18.8127    1.0000 </r>
       <r>  -18.8050    1.0000 </r>
       <r>  -18.8037    1.0000 </r>
       <r>  -18.7959    1.0000 </r>
       <r>  -18.7953    1.0000 </r>
       <r>  -18.7848    1.0000 </r>
       <r>  -18.7721    1.0000 </r>
       <r>  -18.7714    1.0000 </r>
       <r>  -18.7613    1.0000 </r>
       <r>  -18.7516    1.0000 </r>
       <r>  -18.7449    1.0000 </r>
       <r>  -18.7312    1.0000 </r>
       <r>  -18.7207    1.0000 </r>
       <r>  -18.7124    1.0000 </r>
       <r>  -18.7038    1.0000 </r>
       <r>  -18.7006    1.0000 </r>
       <r>  -18.6965    1.0000 </r>
       <r>  -18.6913    1.0000 </r>
       <r>  -18.6863    1.0000 </r>
       <r>  -18.6826    1.0000 </r>
       <r>  -18.6822    1.0000 </r>
       <r>  -18.6811    1.0000 </r>
       <r>  -18.6798    1.0000 </r>
       <r>  -18.6746    1.0000 </r>
       <r>  -18.6733    1.0000 </r>
       <r>  -18.6719    1.0000 </r>
       <r>  -18.6685    1.0000 </r>
       <r>  -18.6649    1.0000 </r>
       <r>  -18.6590    1.0000 </r>
       <r>  -18.6426    1.0000 </r>
       <r>  -18.6068    1.0000 </r>
       <r>  -18.6057    1.0000 </r>
       <r>  -18.6011    1.0000 </r>
       <r>  -18.5928    1.0000 </r>
       <r>  -18.5907    1.0000 </r>
       <r>  -18.5882    1.0000 </r>
       <r>  -18.5848    1.0000 </r>
       <r>  -18.5824    1.0000 </r>
       <r>  -18.5779    1.0000 </r>
       <r>  -18.5535    1.0000 </r>
       <r>  -18.5353    1.0000 </r>
       <r>  -18.5331    1.0000 </r>
       <r>  -18.5283    1.0000 </r>
       <r>  -18.5194    1.0000 </r>
       <r>  -18.5186    1.0000 </r>
       <r>  -18.5145    1.0000 </r>
       <r>  -18.5138    1.0000 </r>
       <r>  -18.4908    1.0000 </r>
       <r>  -18.4849    1.0000 </r>
       <r>  -18.4810    1.0000 </r>
       <r>  -18.4787    1.0000 </r>
       <r>  -18.4689    1.0000 </r>
       <r>  -18.4496    1.0000 </r>
       <r>  -18.4434    1.0000 </r>
       <r>  -18.4303    1.0000 </r>
       <r>  -18.4294    1.0000 </r>
       <r>  -18.4245    1.0000 </r>
       <r>  -18.4172    1.0000 </r>
       <r>  -18.4169    1.0000 </r>
       <r>  -18.4115    1.0000 </r>
       <r>  -18.4021    1.0000 </r>
       <r>  -18.3923    1.0000 </r>
       <r>  -18.3399    1.0000 </r>
       <r>  -18.3287    1.0000 </r>
       <r>  -18.2946    1.0000 </r>
       <r>  -18.2834    1.0000 </r>
       <r>  -18.2686    1.0000 </r>
       <r>  -18.2574    1.0000 </r>
       <r>  -18.2309    1.0000 </r>
       <r>  -18.2208    1.0000 </r>
       <r>  -18.2034    1.0000 </r>
       <r>  -18.1920    1.0000 </r>
       <r>  -13.6231    1.0000 </r>
       <r>  -13.5144    1.0000 </r>
       <r>  -13.4453    1.0000 </r>
[...]
       <r>    8.7906    0.0000 </r>
       <r>    8.8247    0.0000 </r>
       <r>    8.8719    0.0000 </r>
       <r>    8.8795    0.0000 </r>
       <r>    8.9051    0.0000 </r>
       <r>    8.9255    0.0000 </r>
       <r>    8.9433    0.0000 </r>
       <r>    9.5420    0.0000 </r>
       <r>    9.7058    0.0000 </r>
      </set>
     </set>
    </set>
   </array>
  </eigenvalues>
  <separator name="orbital magnetization" >
   <v name="MAGDIPOLOUT">      0.00000000      0.00000000      0.00000000</v>
  </separator>
  <dos>
   <i name="efermi">      4.27593899 </i>
   <total>
    <array>
     <dimension dim="1">gridpoints</dimension>
     <dimension dim="2">spin</dimension>
     <field>energy</field>
     <field>total</field>
     <field>integrated</field>
     <set>
      <set comment="spin 1">
       <r>   -43.0353     0.0000     0.0000 </r>
       <r>   -42.8501     0.0000     0.0000 </r>
       <r>   -42.6649     0.0000     0.0000 </r>
       <r>   -42.4798     0.0000     0.0000 </r>
       <r>   -42.2946     0.0000     0.0000 </r>
       <r>   -42.1094     0.0000     0.0000 </r>
       <r>   -41.9242     0.0000     0.0000 </r>
       <r>   -41.7391     0.0000     0.0000 </r>
       <r>   -41.5539     0.0000     0.0000 </r>
       <r>   -41.3687     0.0000     0.0000 </r>
       <r>   -41.1836     0.0000     0.0000 </r>
       <r>   -40.9984     0.0000     0.0000 </r>
       <r>   -40.8132     0.0000     0.0000 </r>
       <r>   -40.6281     0.0000     0.0000 </r>
       <r>   -40.4429     0.0000     2.0000 </r>
       <r>   -40.2577     0.0000     4.0000 </r>
       <r>   -40.0725     0.0000     4.0000 </r>
       <r>   -39.8874     0.0000     6.0000 </r>
       <r>   -39.7022     0.0000    10.0000 </r>
       <r>   -39.5170     0.0000    10.0000 </r>
       <r>   -39.3319     0.0000    12.0000 </r>
       <r>   -39.1467     0.0000    12.0000 </r>
       <r>   -38.9615     0.0000    12.0000 </r>
       <r>   -38.7763     0.0000    12.0000 </r>
       <r>   -38.5912     0.0000    12.0000 </r>
       <r>   -38.4060     0.0000    12.0000 </r>
       <r>   -38.2208     0.0000    12.0000 </r>
       <r>   -38.0357     0.0000    12.0000 </r>
       <r>   -37.8505     0.0000    12.0000 </r>
       <r>   -37.6653     0.0000    12.0000 </r>
       <r>   -37.4801     0.0000    12.0000 </r>
       <r>   -37.2950     0.0000    12.0000 </r>
       <r>   -37.1098     0.0000    12.0000 </r>
       <r>   -36.9246     0.0000    12.0000 </r>
       <r>   -36.7395     0.0000    12.0000 </r>
       <r>   -36.5543     0.0000    12.0000 </r>
       <r>   -36.3691     0.0000    12.0000 </r>
       <r>   -36.1839     0.0000    12.0000 </r>
       <r>   -35.9988     0.0000    12.0000 </r>
       <r>   -35.8136     0.0000    12.0000 </r>
       <r>   -35.6284     0.0000    12.0000 </r>
       <r>   -35.4433     0.0000    12.0000 </r>
       <r>   -35.2581     0.0000    12.0000 </r>
       <r>   -35.0729     0.0000    12.0000 </r>
       <r>   -34.8877     0.0000    12.0000 </r>
       <r>   -34.7026     0.0000    12.0000 </r>
       <r>   -34.5174     0.0000    12.0000 </r>
       <r>   -34.3322     0.0000    12.0000 </r>
       <r>   -34.1471     0.0000    12.0000 </r>
       <r>   -33.9619     0.0000    12.0000 </r>
       <r>   -33.7767     0.0000    12.0000 </r>
       <r>   -33.5915     0.0000    12.0000 </r>
       <r>   -33.4064     0.0000    12.0000 </r>
       <r>   -33.2212     0.0000    12.0000 </r>
       <r>   -33.0360     0.0000    12.0000 </r>
       <r>   -32.8509     0.0000    12.0000 </r>
       <r>   -32.6657     0.0000    12.0000 </r>
       <r>   -32.4805     0.0000    12.0000 </r>
       <r>   -32.2954     0.0000    12.0000 </r>
       <r>   -32.1102     0.0000    12.0000 </r>
       <r>   -31.9250     0.0000    12.0000 </r>
       <r>   -31.7398     0.0000    12.0000 </r>
       <r>   -31.5547     0.0000    12.0000 </r>
       <r>   -31.3695     0.0000    12.0000 </r>
       <r>   -31.1843     0.0000    12.0000 </r>
       <r>   -30.9992     0.0000    12.0000 </r>
       <r>   -30.8140     0.0000    12.0000 </r>
       <r>   -30.6288     0.0000    12.0000 </r>
       <r>   -30.4436     0.0000    12.0000 </r>
       <r>   -30.2585     0.0000    12.0000 </r>
       <r>   -30.0733     0.0000    12.0000 </r>
       <r>   -29.8881     0.0000    12.0000 </r>
       <r>   -29.7030     0.0000    12.0000 </r>
       <r>   -29.5178     0.0000    12.0000 </r>
       <r>   -29.3326     0.0000    12.0000 </r>
       <r>   -29.1474     0.0000    12.0000 </r>
       <r>   -28.9623     0.0000    12.0000 </r>
       <r>   -28.7771     0.0000    12.0000 </r>
       <r>   -28.5919     0.0000    12.0000 </r>
       <r>   -28.4068     0.0000    12.0000 </r>
       <r>   -28.2216     0.0000    12.0000 </r>
       <r>   -28.0364     0.0000    12.0000 </r>
       <r>   -27.8512     0.0000    12.0000 </r>
       <r>   -27.6661     0.0000    12.0000 </r>
       <r>   -27.4809     0.0000    12.0000 </r>
       <r>   -27.2957     0.0000    12.0000 </r>
       <r>   -27.1106     0.0000    12.0000 </r>
       <r>   -26.9254     0.0000    12.0000 </r>
       <r>   -26.7402     0.0000    12.0000 </r>
       <r>   -26.5550     0.0000    12.0000 </r>
       <r>   -26.3699     0.0000    12.0000 </r>
       <r>   -26.1847     0.0000    12.0000 </r>
       <r>   -25.9995     0.0000    12.0000 </r>
       <r>   -25.8144     0.0000    12.0000 </r>
       <r>   -25.6292     0.0000    12.0000 </r>
       <r>   -25.4440     0.0000    12.0000 </r>
       <r>   -25.2589     0.0000    12.0000 </r>
       <r>   -25.0737     0.0000    12.0000 </r>
       <r>   -24.8885     0.0000    12.0000 </r>
       <r>   -24.7033     0.0000    12.0000 </r>
       <r>   -24.5182     0.0000    12.0000 </r>
       <r>   -24.3330     0.0000    12.0000 </r>
       <r>   -24.1478     0.0000    12.0000 </r>
       <r>   -23.9627     0.0000    12.0000 </r>
       <r>   -23.7775     0.0000    12.0000 </r>
       <r>   -23.5923     0.0000    12.0000 </r>
       <r>   -23.4071     0.0000    12.0000 </r>
       <r>   -23.2220     0.0000    12.0000 </r>
       <r>   -23.0368     0.0000    12.0000 </r>
       <r>   -22.8516     0.0000    12.0000 </r>
       <r>   -22.6665     0.0000    12.0000 </r>
       <r>   -22.4813     0.0000    12.0000 </r>
       <r>   -22.2961     0.0000    12.0000 </r>
       <r>   -22.1109     0.0000    12.0000 </r>
       <r>   -21.9258     0.0000    12.0000 </r>
       <r>   -21.7406     0.0000    12.0000 </r>
       <r>   -21.5554     0.0000    12.0000 </r>
       <r>   -21.3703     0.0000    12.0000 </r>
       <r>   -21.1851     0.0000    12.0000 </r>
       <r>   -20.9999     0.0000    12.0000 </r>
       <r>   -20.8147     0.0000    12.0000 </r>
       <r>   -20.6296     0.0000    12.0000 </r>
       <r>   -20.4444     0.0000    12.0000 </r>
       <r>   -20.2592     0.0000    12.0000 </r>
       <r>   -20.0741     0.0000    12.0000 </r>
       <r>   -19.8889     0.0000    12.0000 </r>
       <r>   -19.7037     0.0000    12.0000 </r>
       <r>   -19.5185     0.0000    12.0000 </r>
       <r>   -19.3334     0.0000    12.0000 </r>
       <r>   -19.1482     0.0000    12.0000 </r>
       <r>   -18.9630     0.0000    14.0000 </r>
       <r>   -18.7779     0.0000    40.0000 </r>
       <r>   -18.5927     0.0000    96.0000 </r>
       <r>   -18.4075     0.0000   148.0000 </r>
       <r>   -18.2223     0.0000   166.0000 </r>
       <r>   -18.0372     0.0000   172.0000 </r>
       <r>   -17.8520     0.0000   172.0000 </r>
       <r>   -17.6668     0.0000   172.0000 </r>
       <r>   -17.4817     0.0000   172.0000 </r>
       <r>   -17.2965     0.0000   172.0000 </r>
       <r>   -17.1113     0.0000   172.0000 </r>
       <r>   -16.9262     0.0000   172.0000 </r>
       <r>   -16.7410     0.0000   172.0000 </r>
       <r>   -16.5558     0.0000   172.0000 </r>
       <r>   -16.3706     0.0000   172.0000 </r>
       <r>   -16.1855     0.0000   172.0000 </r>
       <r>   -16.0003     0.0000   172.0000 </r>
       <r>   -15.8151     0.0000   172.0000 </r>
       <r>   -15.6300     0.0000   172.0000 </r>
       <r>   -15.4448     0.0000   172.0000 </r>
       <r>   -15.2596     0.0000   172.0000 </r>
       <r>   -15.0744     0.0000   172.0000 </r>
       <r>   -14.8893     0.0000   172.0000 </r>
       <r>   -14.7041     0.0000   172.0000 </r>
       <r>   -14.5189     0.0000   172.0000 </r>
       <r>   -14.3338     0.0000   172.0000 </r>
       <r>   -14.1486     0.0000   172.0000 </r>
       <r>   -13.9634     0.0000   172.0000 </r>
       <r>   -13.7782     0.0000   172.0000 </r>
       <r>   -13.5931     0.0000   174.0000 </r>
       <r>   -13.4079     0.0000   180.0000 </r>
       <r>   -13.2227     0.0000   180.0000 </r>
       <r>   -13.0376     0.0000   180.0000 </r>
       <r>   -12.8524     0.0000   182.0000 </r>
       <r>   -12.6672     0.0000   192.0000 </r>
       <r>   -12.4820     0.0000   196.0000 </r>
       <r>   -12.2969     0.0000   196.0000 </r>
       <r>   -12.1117     0.0000   196.0000 </r>
       <r>   -11.9265     0.0000   204.0000 </r>
       <r>   -11.7414     0.0000   204.0000 </r>
       <r>   -11.5562     0.0000   204.0000 </r>
       <r>   -11.3710     0.0000   204.0000 </r>
       <r>   -11.1858     0.0000   204.0000 </r>
       <r>   -11.0007     0.0000   204.0000 </r>
       <r>   -10.8155     0.0000   204.0000 </r>
       <r>   -10.6303     0.0000   204.0000 </r>
       <r>   -10.4452     0.0000   204.0000 </r>
       <r>   -10.2600     0.0000   204.0000 </r>
       <r>   -10.0748     0.0000   204.0000 </r>
       <r>    -9.8896     0.0000   204.0000 </r>
       <r>    -9.7045     0.0000   204.0000 </r>
       <r>    -9.5193     0.0000   204.0000 </r>
       <r>    -9.3341     1.6372   204.0181 </r>
       <r>    -9.1490    10.2109   205.4599 </r>
       <r>    -8.9638     0.0000   208.0000 </r>
       <r>    -8.7786    15.8416   210.3987 </r>
       <r>    -8.5935    11.1324   212.7145 </r>
       <r>    -8.4083    32.4385   217.0740 </r>
       <r>    -8.2231    13.9535   220.2073 </r>
       <r>    -8.0379    25.9276   225.0602 </r>
       <r>    -7.8528    15.9846   228.8575 </r>
       <r>    -7.6676     5.9068   232.0118 </r>
       <r>    -7.4824    11.0369   235.4611 </r>
       <r>    -7.2973     0.0000   236.0000 </r>
       <r>    -7.1121     0.0000   236.0000 </r>
       <r>    -6.9269     0.0000   236.0000 </r>
       <r>    -6.7417     0.0000   236.0000 </r>
       <r>    -6.5566     0.0000   236.0000 </r>
       <r>    -6.3714     2.6578   236.0540 </r>
       <r>    -6.1862    21.9564   238.3639 </r>
       <r>    -6.0011    17.8192   242.9239 </r>
       <r>    -5.8159    26.4446   245.9819 </r>
       <r>    -5.6307    20.9986   250.8711 </r>
       <r>    -5.4455    19.8501   254.2707 </r>
       <r>    -5.2604    16.9425   258.1516 </r>
       <r>    -5.0752     3.3225   259.9106 </r>
       <r>    -4.8900     7.9383   260.7361 </r>
       <r>    -4.7049     8.8113   262.2497 </r>
       <r>    -4.5197     9.2911   264.0943 </r>
       <r>    -4.3345     6.6779   265.4088 </r>
       <r>    -4.1493     6.4328   266.7297 </r>
       <r>    -3.9642     3.1052   267.6130 </r>
       <r>    -3.7790     0.8905   267.9378 </r>
       <r>    -3.5938     0.0000   268.0000 </r>
       <r>    -3.4087     0.0000   268.0000 </r>
       <r>    -3.2235     0.0000   268.0000 </r>
       <r>    -3.0383     0.0000   268.0000 </r>
       <r>    -2.8531     0.0000   268.0000 </r>
       <r>    -2.6680     0.0000   268.0000 </r>
       <r>    -2.4828     0.0000   268.0000 </r>
       <r>    -2.2976     0.0000   268.0000 </r>
       <r>    -2.1125     0.0000   268.0000 </r>
       <r>    -1.9273     0.0000   268.0000 </r>
       <r>    -1.7421     0.0000   268.0000 </r>
       <r>    -1.5570     0.0000   268.0000 </r>
       <r>    -1.3718     2.4501   268.1386 </r>
       <r>    -1.1866    10.2476   269.2626 </r>
       <r>    -1.0014    12.3716   271.3342 </r>
       <r>    -0.8163    10.7771   273.7466 </r>
       <r>    -0.6311     5.5345   275.2062 </r>
       <r>    -0.4459    20.8521   277.3138 </r>
       <r>    -0.2608    24.4811   281.6491 </r>
       <r>    -0.0756    41.1275   288.2708 </r>
       <r>     0.1096    32.3428   295.1231 </r>
       <r>     0.2948    36.3604   301.1381 </r>
       <r>     0.4799    34.5092   308.3288 </r>
       <r>     0.6651    32.4603   315.2827 </r>
       <r>     0.8503    44.7804   322.2372 </r>
       <r>     1.0354    43.6738   329.9812 </r>
       <r>     1.2206    34.4611   338.2097 </r>
       <r>     1.4058    63.9241   347.7103 </r>
       <r>     1.5910    57.1457   357.3289 </r>
       <r>     1.7761    32.1305   365.4813 </r>
       <r>     1.9613    36.0425   371.6513 </r>
       <r>     2.1465    46.8118   379.2609 </r>
       <r>     2.3316    50.2387   387.9767 </r>
       <r>     2.5168    62.9500   398.3692 </r>
       <r>     2.7020    58.4172   408.8299 </r>
       <r>     2.8872    63.0509   419.8653 </r>
       <r>     3.0723    42.2285   431.7818 </r>
       <r>     3.2575    33.6225   438.7320 </r>
       <r>     3.4427    37.2027   446.5186 </r>
       <r>     3.6278    18.5925   452.1216 </r>
       <r>     3.8130    20.6849   455.6719 </r>
       <r>     3.9982    11.0264   458.7878 </r>
       <r>     4.1834     1.7352   459.9508 </r>
       <r>     4.3685     0.0000   460.0000 </r>
       <r>     4.5537     0.0000   460.0000 </r>
       <r>     4.7389     0.0000   460.0000 </r>
       <r>     4.9240     0.0000   460.0000 </r>
       <r>     5.1092     0.8464   460.0403 </r>
       <r>     5.2944     3.7882   460.4171 </r>
       <r>     5.4796     7.9603   461.5047 </r>
       <r>     5.6647     9.6569   463.2227 </r>
       <r>     5.8499    25.5377   466.8680 </r>
       <r>     6.0351    12.8392   469.7385 </r>
       <r>     6.2202    11.7735   471.9581 </r>
       <r>     6.4054    13.6050   474.2958 </r>
       <r>     6.5906    15.5725   476.9977 </r>
       <r>     6.7757    17.6662   480.0671 </r>
       <r>     6.9609    21.0152   483.6222 </r>
       <r>     7.1461    26.9901   488.0460 </r>
       <r>     7.3313    37.1457   494.1448 </r>
       <r>     7.5164    27.9865   500.8848 </r>
       <r>     7.7016    42.1910   506.2277 </r>
       <r>     7.8868    46.1959   514.7602 </r>
       <r>     8.0719    27.1924   521.9199 </r>
       <r>     8.2571    18.4434   525.8307 </r>
       <r>     8.4423    21.2361   529.4187 </r>
       <r>     8.6275    25.8118   533.8096 </r>
       <r>     8.8126    43.8544   540.1382 </r>
       <r>     8.9978    28.6419   547.2257 </r>
       <r>     9.1830    16.6574   551.2496 </r>
       <r>     9.3681    13.5655   554.0131 </r>
       <r>     9.5533    13.4871   556.5240 </r>
       <r>     9.7385     9.0397   559.0872 </r>
       <r>     9.9237     0.8106   559.9818 </r>
       <r>    10.1088     0.0000   560.0000 </r>
       <r>    10.2940     0.0000   560.0000 </r>
       <r>    10.4792     0.0000   560.0000 </r>
       <r>    10.6643     0.0000   560.0000 </r>
       <r>    10.8495     0.0000   560.0000 </r>
       <r>    11.0347     0.0000   560.0000 </r>
       <r>    11.2199     0.0000   560.0000 </r>
       <r>    11.4050     0.0000   560.0000 </r>
       <r>    11.5902     0.0000   560.0000 </r>
       <r>    11.7754     0.0000   560.0000 </r>
       <r>    11.9605     0.0000   560.0000 </r>
       <r>    12.1457     0.0000   560.0000 </r>
       <r>    12.3309     0.0000   560.0000 </r>
       <r>    12.5161     0.0000   560.0000 </r>
      </set>
     </set>
    </array>
   </total>
  </dos>
 </calculation>
 <structure name="finalpos" >
  <crystal>
   <varray name="basis" >
    <v>      11.17850000       0.00000000       0.00000000 </v>
    <v>       0.00000000       9.57460000       0.00000000 </v>
    <v>       0.00000000       0.00000000      11.18240000 </v>
   </varray>
   <i name="volume">   1196.84853820 </i>
   <varray name="rec_basis" >
    <v>       0.08945744       0.00000000       0.00000000 </v>
    <v>       0.00000000       0.10444301       0.00000000 </v>
    <v>       0.00000000       0.00000000       0.08942624 </v>
   </varray>
  </crystal>
  <varray name="positions" >
   <v>       0.37539000       0.00017000       0.43687000 </v>
   <v>       0.87461000       0.00017000       0.18687000 </v>
   <v>       0.12539000       0.99984000       0.93687000 </v>
   <v>       0.37539000       0.00017000       0.93687000 </v>
   <v>       0.37461000       0.00017000       0.68687000 </v>
   <v>       0.87539000       0.00017000       0.93687000 </v>
   <v>       0.12461000       0.99984000       0.18687000 </v>
   <v>       0.87539000       0.00017000       0.43687000 </v>
   <v>       0.62461000       0.99984000       0.18687000 </v>
   <v>       0.12461000       0.99984000       0.68687000 </v>
   <v>       0.62461000       0.99984000       0.68687000 </v>
   <v>       0.00013000       0.29519000       0.06281000 </v>
   <v>       0.25013000       0.70481000       0.06281000 </v>
   <v>       0.24987000       0.29519000       0.31282000 </v>
   <v>       0.49987000       0.70481000       0.31282000 </v>
   <v>       0.50013000       0.29519000       0.06281000 </v>
   <v>       0.75013000       0.70481000       0.06281000 </v>
   <v>       0.74987000       0.29519000       0.31282000 </v>
   <v>       0.99987000       0.70481000       0.31282000 </v>
   <v>       0.00013000       0.29519000       0.56281000 </v>
   <v>       0.25013000       0.70481000       0.56281000 </v>
   <v>       0.24987000       0.29519000       0.81282000 </v>
   <v>       0.49987000       0.70481000       0.81282000 </v>
   <v>       0.50013000       0.29519000       0.56281000 </v>
   <v>       0.75013000       0.70481000       0.56281000 </v>
   <v>       0.74987000       0.29519000       0.81282000 </v>
   <v>       0.99987000       0.70481000       0.81282000 </v>
   <v>       0.25005000       0.32677000       0.06286000 </v>
   <v>       0.00005000       0.67323000       0.06286000 </v>
   <v>       0.49995000       0.32677000       0.31286000 </v>
   <v>       0.24995000       0.67323000       0.31286000 </v>
   <v>       0.75005000       0.32677000       0.06286000 </v>
   <v>       0.50005000       0.67323000       0.06286000 </v>
   <v>       0.99995000       0.32677000       0.31286000 </v>
   <v>       0.74995000       0.67323000       0.31286000 </v>
   <v>       0.25005000       0.32677000       0.56286000 </v>
   <v>       0.00005000       0.67323000       0.56286000 </v>
   <v>       0.49995000       0.32677000       0.81286000 </v>
   <v>       0.24995000       0.67323000       0.81286000 </v>
   <v>       0.75005000       0.32677000       0.56286000 </v>
   <v>       0.50005000       0.67323000       0.56286000 </v>
   <v>       0.99995000       0.32677000       0.81286000 </v>
   <v>       0.74995000       0.67323000       0.81286000 </v>
   <v>       0.49987000       0.07798000       0.06246000 </v>
   <v>       0.24987000       0.92202000       0.06246000 </v>
   <v>       0.25013000       0.07798000       0.31246000 </v>
   <v>       0.00013000       0.92202000       0.31246000 </v>
   <v>       0.99987000       0.07798000       0.06246000 </v>
   <v>       0.74987000       0.92202000       0.06246000 </v>
   <v>       0.75013000       0.07798000       0.31246000 </v>
   <v>       0.50013000       0.92202000       0.31246000 </v>
   <v>       0.49987000       0.07798000       0.56246000 </v>
   <v>       0.24987000       0.92202000       0.56246000 </v>
   <v>       0.25013000       0.07798000       0.81246000 </v>
   <v>       0.00013000       0.92202000       0.81246000 </v>
   <v>       0.99987000       0.07798000       0.56246000 </v>
   <v>       0.74987000       0.92202000       0.56246000 </v>
   <v>       0.75013000       0.07798000       0.81246000 </v>
   <v>       0.50013000       0.92202000       0.81246000 </v>
  </varray>
 </structure>
</modeling>
