<?xml version="1.0" encoding="ISO-8859-1"?>
<modeling>
 <generator>
  <i name="program" type="string">vasp </i>
  <i name="version" type="string">5.4.4.18Apr17-6-g9f103f2a35  </i>
  <i name="subversion" type="string">(build Jul 31 2017 11:33:29) complex            parallel </i>
  <i name="platform" type="string">LinuxIFC </i>
  <i name="date" type="string">2021 09 29 </i>
  <i name="time" type="string">17:18:33 </i>
 </generator>
 <incar>
  <i type="string" name="SYSTEM"> La2O2S</i>
  <i type="string" name="PREC">normal</i>
  <i type="int" name="NELMIN">     4</i>
  <i type="int" name="IBRION">     2</i>
  <i type="int" name="NFREE">    10</i>
  <i name="EDIFF">      0.00000100</i>
  <i name="EDIFFG">     -0.01000000</i>
  <i type="int" name="NSW">     1</i>
  <i type="int" name="ISIF">     2</i>
  <i name="ENCUT">    600.00000000</i>
  <i name="ENAUG">    900.00000000</i>
  <i type="int" name="ISMEAR">    -5</i>
  <i type="logical" name="LWAVE"> F  </i>
  <i type="logical" name="LCHARG"> F  </i>
  <v type="int" name="KPOINT_BSE">    -1     0     0     0</v>
 </incar>
 <structure name="primitive_cell" >
  <crystal>
   <varray name="basis" >
    <v>      11.17850000       0.00000000       0.00000000 </v>
    <v>       0.00000000       9.57460000       0.00000000 </v>
    <v>       0.00000000       0.00000000      11.18240000 </v>
   </varray>
   <i name="volume">   1196.84853820 </i>
   <varray name="rec_basis" >
    <v>       0.08945744       0.00000000       0.00000000 </v>
    <v>       0.00000000       0.10444301       0.00000000 </v>
    <v>       0.00000000       0.00000000       0.08942624 </v>
   </varray>
  </crystal>
  <varray name="positions" >
   <v>       0.37539000       0.00017000       0.43687000 </v>
   <v>      -0.49987000      -0.07798000       0.31246000 </v>
   <v>       0.25013000       0.07798000       0.31246000 </v>
   <v>       0.49987000       0.07798000      -0.43754000 </v>
   <v>       0.24987000      -0.07798000      -0.43754000 </v>
   <v>      -0.37461000      -0.00016000       0.43687000 </v>
   <v>       0.37461000       0.00017000       0.18687000 </v>
   <v>       0.37461000       0.00017000      -0.31313000 </v>
   <v>       0.49987000      -0.29519000       0.31282000 </v>
   <v>       0.24987000       0.29519000       0.31282000 </v>
   <v>      -0.49987000       0.29519000      -0.43719000 </v>
   <v>       0.25013000      -0.29519000      -0.43719000 </v>
   <v>       0.49995000       0.32677000       0.31286000 </v>
   <v>       0.24995000      -0.32677000       0.31286000 </v>
   <v>      -0.49995000      -0.32677000      -0.43714000 </v>
   <v>       0.25005000       0.32677000      -0.43714000 </v>
   <v>      -0.37539000      -0.00016000       0.18687000 </v>
   <v>       0.12461000      -0.00016000       0.18687000 </v>
   <v>       0.12461000      -0.00016000      -0.31313000 </v>
   <v>       0.49987000       0.07798000       0.06246000 </v>
   <v>      -0.24987000       0.07798000       0.31246000 </v>
   <v>      -0.25013000      -0.07798000      -0.43754000 </v>
   <v>       0.24987000      -0.07798000       0.06246000 </v>
   <v>       0.00013000      -0.07798000       0.31246000 </v>
   <v>      -0.49987000      -0.07798000      -0.18754000 </v>
   <v>      -0.00013000       0.07798000      -0.43754000 </v>
   <v>       0.25013000       0.07798000      -0.18754000 </v>
   <v>      -0.49987000       0.29519000       0.06281000 </v>
   <v>      -0.25013000       0.29519000       0.31282000 </v>
   <v>       0.25013000      -0.29519000       0.06281000 </v>
   <v>      -0.24987000      -0.29519000      -0.43719000 </v>
   <v>      -0.00013000      -0.29519000       0.31282000 </v>
   <v>       0.00013000       0.29519000      -0.43719000 </v>
   <v>       0.49987000      -0.29519000      -0.18718000 </v>
   <v>       0.24987000       0.29519000      -0.18718000 </v>
   <v>      -0.49995000      -0.32677000       0.06286000 </v>
   <v>       0.25005000       0.32677000       0.06286000 </v>
   <v>      -0.25005000      -0.32677000       0.31286000 </v>
   <v>      -0.24995000       0.32677000      -0.43714000 </v>
   <v>      -0.00005000       0.32677000       0.31286000 </v>
   <v>       0.00005000      -0.32677000      -0.43714000 </v>
   <v>       0.49995000       0.32677000      -0.18714000 </v>
   <v>       0.24995000      -0.32677000      -0.18714000 </v>
   <v>      -0.12461000       0.00017000       0.43687000 </v>
   <v>      -0.25013000      -0.07798000       0.06246000 </v>
   <v>      -0.00013000       0.07798000       0.06246000 </v>
   <v>      -0.24987000       0.07798000      -0.18754000 </v>
   <v>       0.00013000      -0.07798000      -0.18754000 </v>
   <v>      -0.12539000       0.00017000       0.18687000 </v>
   <v>      -0.12539000       0.00017000      -0.31313000 </v>
   <v>       0.12539000      -0.00016000      -0.06313000 </v>
   <v>      -0.37461000      -0.00016000      -0.06313000 </v>
   <v>      -0.24987000      -0.29519000       0.06281000 </v>
   <v>       0.00013000       0.29519000       0.06281000 </v>
   <v>      -0.25013000       0.29519000      -0.18718000 </v>
   <v>      -0.00013000      -0.29519000      -0.18718000 </v>
   <v>      -0.24995000       0.32677000       0.06286000 </v>
   <v>       0.00005000      -0.32677000       0.06286000 </v>
   <v>      -0.25005000      -0.32677000      -0.18714000 </v>
   <v>      -0.00005000       0.32677000      -0.18714000 </v>
  </varray>
 </structure>
 <varray name="primitive_index" >
  <v type="int" >        1 </v>
  <v type="int" >       52 </v>
  <v type="int" >       47 </v>
  <v type="int" >       53 </v>
  <v type="int" >       54 </v>
  <v type="int" >        4 </v>
  <v type="int" >        3 </v>
  <v type="int" >       10 </v>
  <v type="int" >       16 </v>
  <v type="int" >       15 </v>
  <v type="int" >       25 </v>
  <v type="int" >       22 </v>
  <v type="int" >       31 </v>
  <v type="int" >       32 </v>
  <v type="int" >       42 </v>
  <v type="int" >       37 </v>
  <v type="int" >        6 </v>
  <v type="int" >        2 </v>
  <v type="int" >        8 </v>
  <v type="int" >       45 </v>
  <v type="int" >       51 </v>
  <v type="int" >       58 </v>
  <v type="int" >       46 </v>
  <v type="int" >       48 </v>
  <v type="int" >       60 </v>
  <v type="int" >       57 </v>
  <v type="int" >       55 </v>
  <v type="int" >       17 </v>
  <v type="int" >       19 </v>
  <v type="int" >       14 </v>
  <v type="int" >       26 </v>
  <v type="int" >       20 </v>
  <v type="int" >       21 </v>
  <v type="int" >       24 </v>
  <v type="int" >       23 </v>
  <v type="int" >       34 </v>
  <v type="int" >       29 </v>
  <v type="int" >       36 </v>
  <v type="int" >       41 </v>
  <v type="int" >       35 </v>
  <v type="int" >       38 </v>
  <v type="int" >       39 </v>
  <v type="int" >       40 </v>
  <v type="int" >        5 </v>
  <v type="int" >       50 </v>
  <v type="int" >       49 </v>
  <v type="int" >       59 </v>
  <v type="int" >       56 </v>
  <v type="int" >        7 </v>
  <v type="int" >       12 </v>
  <v type="int" >        9 </v>
  <v type="int" >       11 </v>
  <v type="int" >       18 </v>
  <v type="int" >       13 </v>
  <v type="int" >       27 </v>
  <v type="int" >       28 </v>
  <v type="int" >       33 </v>
  <v type="int" >       30 </v>
  <v type="int" >       44 </v>
  <v type="int" >       43 </v>
 </varray>
 <kpoints>
  <generation param="Gamma">
   <v type="int" name="divisions">       2        2        2 </v>
   <v name="usershift">      0.00000000       0.00000000       0.00000000 </v>
   <v name="genvec1">      0.50000000       0.00000000       0.00000000 </v>
   <v name="genvec2">      0.00000000       0.50000000       0.00000000 </v>
   <v name="genvec3">      0.00000000       0.00000000       0.50000000 </v>
   <v name="shift">      0.00000000       0.00000000       0.00000000 </v>
  </generation>
  <varray name="kpointlist" >
   <v>       0.00000000       0.00000000       0.00000000 </v>
   <v>       0.50000000       0.00000000       0.00000000 </v>
   <v>       0.00000000       0.50000000       0.00000000 </v>
   <v>       0.50000000       0.50000000       0.00000000 </v>
   <v>       0.00000000       0.00000000       0.50000000 </v>
   <v>       0.50000000       0.00000000       0.50000000 </v>
   <v>       0.00000000       0.50000000       0.50000000 </v>
   <v>       0.50000000       0.50000000       0.50000000 </v>
  </varray>
  <varray name="weights" >
   <v>       0.12500000 </v>
   <v>       0.12500000 </v>
   <v>       0.12500000 </v>
   <v>       0.12500000 </v>
   <v>       0.12500000 </v>
   <v>       0.12500000 </v>
   <v>       0.12500000 </v>
   <v>       0.12500000 </v>
  </varray>
  <varray name="tetrahedronlist"  type="int" >
   <v type="int" >        2        1        2        4        5 </v>
   <v type="int" >        2        1        3        4        5 </v>
   <v type="int" >        2        3        4        5        7 </v>
   <v type="int" >        2        2        4        5        6 </v>
   <v type="int" >        2        4        5        6        8 </v>
   <v type="int" >        2        4        5        7        8 </v>
   <v type="int" >        2        1        2        3        6 </v>
   <v type="int" >        2        2        3        4        6 </v>
   <v type="int" >        2        3        4        6        8 </v>
   <v type="int" >        2        1        3        5        6 </v>
   <v type="int" >        2        3        5        6        7 </v>
   <v type="int" >        2        3        6        7        8 </v>
   <v type="int" >        2        2        3        4        7 </v>
   <v type="int" >        2        1        2        3        7 </v>
   <v type="int" >        2        1        2        5        7 </v>
   <v type="int" >        2        2        4        7        8 </v>
   <v type="int" >        2        2        6        7        8 </v>
   <v type="int" >        2        2        5        6        7 </v>
   <v type="int" >        2        1        3        4        8 </v>
   <v type="int" >        2        1        2        4        8 </v>
   <v type="int" >        2        1        2        6        8 </v>
   <v type="int" >        2        1        3        7        8 </v>
   <v type="int" >        2        1        5        7        8 </v>
   <v type="int" >        2        1        5        6        8 </v>
  </varray>
  <i name="volumeweight">      0.02083333 </i>
 </kpoints>
 <parameters>
  <separator name="general" >
   <i type="string" name="SYSTEM">La2O2S</i>
   <i type="logical" name="LCOMPAT"> F  </i>
  </separator>
  <separator name="electronic" >
   <i type="string" name="PREC">normal</i>
   <i name="ENMAX">    600.00000000</i>
   <i name="ENAUG">    900.00000000</i>
   <i name="EDIFF">      0.00000100</i>
   <i type="int" name="IALGO">    38</i>
   <i type="int" name="IWAVPR">    11</i>
   <i type="int" name="NBANDS">   280</i>
   <i name="NELECT">    464.00000000</i>
   <i type="int" name="TURBO">     0</i>
   <i type="int" name="IRESTART">     0</i>
   <i type="int" name="NREBOOT">     0</i>
   <i type="int" name="NMIN">     0</i>
   <i name="EREF">      0.00000000</i>
   <separator name="electronic smearing" >
    <i type="int" name="ISMEAR">    -5</i>
    <i name="SIGMA">      0.20000000</i>
    <i name="KSPACING">      0.50000000</i>
    <i type="logical" name="KGAMMA"> T  </i>
   </separator>
   <separator name="electronic projectors" >
    <i type="logical" name="LREAL"> F  </i>
    <v name="ROPT">      0.00000000      0.00000000      0.00000000      0.00000000      0.00000000</v>
    <i type="int" name="LMAXPAW">  -100</i>
    <i type="int" name="LMAXMIX">     2</i>
    <i type="logical" name="NLSPLINE"> F  </i>
   </separator>
   <separator name="electronic startup" >
    <i type="int" name="ISTART">     0</i>
    <i type="int" name="ICHARG">     2</i>
    <i type="int" name="INIWAV">     1</i>
   </separator>
   <separator name="electronic spin" >
    <i type="int" name="ISPIN">     1</i>
    <i type="logical" name="LNONCOLLINEAR"> F  </i>
    <v name="MAGMOM">      1.00000000      1.00000000      1.00000000      1.00000000      1.00000000      1.00000000      1.00000000      1.00000000      1.00000000      1.00000000      1.00000000      1.00000000      1.00000000      1.00000000      1.00000000      1.00000000      1.00000000      1.00000000      1.00000000      1.00000000
      1.00000000      1.00000000      1.00000000      1.00000000      1.00000000      1.00000000      1.00000000      1.00000000      1.00000000      1.00000000      1.00000000      1.00000000      1.00000000      1.00000000      1.00000000      1.00000000      1.00000000      1.00000000      1.00000000      1.00000000
      1.00000000      1.00000000      1.00000000      1.00000000      1.00000000      1.00000000      1.00000000      1.00000000      1.00000000      1.00000000      1.00000000      1.00000000      1.00000000      1.00000000      1.00000000      1.00000000      1.00000000      1.00000000      1.00000000      1.00000000
</v>
    <i name="NUPDOWN">     -1.00000000</i>
    <i type="logical" name="LSORBIT"> F  </i>
    <v name="SAXIS">      0.00000000      0.00000000      1.00000000</v>
    <i type="logical" name="LSPIRAL"> F  </i>
    <v name="QSPIRAL">      0.00000000      0.00000000      0.00000000</v>
    <i type="logical" name="LZEROZ"> F  </i>
   </separator>
   <separator name="electronic exchange-correlation" >
    <i type="logical" name="LASPH"> F  </i>
    <i type="logical" name="LMETAGGA"> F  </i>
   </separator>
   <separator name="electronic convergence" >
    <i type="int" name="NELM">    60</i>
    <i type="int" name="NELMDL">    -5</i>
    <i type="int" name="NELMIN">     4</i>
    <i name="ENINI">    600.00000000</i>
    <separator name="electronic convergence detail" >
     <i type="logical" name="LDIAG"> T  </i>
     <i type="logical" name="LSUBROT"> F  </i>
     <i name="WEIMIN">      0.00100000</i>
     <i name="EBREAK">      0.00000000</i>
     <i name="DEPER">      0.30000000</i>
     <i type="int" name="NRMM">     4</i>
     <i name="TIME">      0.40000000</i>
    </separator>
   </separator>
   <separator name="electronic mixer" >
    <i name="AMIX">      0.40000000</i>
    <i name="BMIX">      1.00000000</i>
    <i name="AMIN">      0.10000000</i>
    <i name="AMIX_MAG">      1.60000000</i>
    <i name="BMIX_MAG">      1.00000000</i>
    <separator name="electronic mixer details" >
     <i type="int" name="IMIX">     4</i>
     <i type="logical" name="MIXFIRST"> F  </i>
     <i type="int" name="MAXMIX">   -45</i>
     <i name="WC">    100.00000000</i>
     <i type="int" name="INIMIX">     1</i>
     <i type="int" name="MIXPRE">     1</i>
     <i type="int" name="MREMOVE">     5</i>
    </separator>
   </separator>
   <separator name="electronic dipolcorrection" >
    <i type="logical" name="LDIPOL"> F  </i>
    <i type="logical" name="LMONO"> F  </i>
    <i type="int" name="IDIPOL">     0</i>
    <i name="EPSILON">      1.00000000</i>
    <v name="DIPOL">   -100.00000000   -100.00000000   -100.00000000</v>
    <i name="EFIELD">      0.00000000</i>
   </separator>
  </separator>
  <separator name="grids" >
   <i type="int" name="NGX">    70</i>
   <i type="int" name="NGY">    60</i>
   <i type="int" name="NGZ">    70</i>
   <i type="int" name="NGXF">   140</i>
   <i type="int" name="NGYF">   120</i>
   <i type="int" name="NGZF">   140</i>
   <i type="logical" name="ADDGRID"> F  </i>
  </separator>
  <separator name="ionic" >
   <i type="int" name="NSW">     1</i>
   <i type="int" name="IBRION">     2</i>
   <i type="int" name="MDALGO">     0</i>
   <i type="int" name="ISIF">     2</i>
   <i name="PSTRESS">      0.00000000</i>
   <i name="EDIFFG">     -0.01000000</i>
   <i type="int" name="NFREE">    10</i>
   <i name="POTIM">      0.50000000</i>
   <i name="SMASS">     -3.00000000</i>
   <i name="SCALEE">      1.00000000</i>
  </separator>
  <separator name="ionic md" >
   <i name="TEBEG">      0.00010000</i>
   <i name="TEEND">      0.00010000</i>
   <i type="int" name="NBLOCK">     1</i>
   <i type="int" name="KBLOCK">     1</i>
   <i type="int" name="NPACO">   256</i>
   <i name="APACO">     16.00000000</i>
  </separator>
  <separator name="symmetry" >
   <i type="int" name="ISYM">     2</i>
   <i name="SYMPREC">      0.00001000</i>
  </separator>
  <separator name="dos" >
   <i type="int" name="LORBIT">     0</i>
   <v name="RWIGS">     -1.00000000     -1.00000000     -1.00000000     -1.00000000     -1.00000000</v>
   <i type="int" name="NEDOS">   301</i>
   <i name="EMIN">     10.00000000</i>
   <i name="EMAX">    -10.00000000</i>
   <i name="EFERMI">      0.00000000</i>
  </separator>
  <separator name="writing" >
   <i type="int" name="NWRITE">     2</i>
   <i type="logical" name="LWAVE"> F  </i>
   <i type="logical" name="LDOWNSAMPLE"> F  </i>
   <i type="logical" name="LCHARG"> F  </i>
   <i type="logical" name="LPARD"> F  </i>
   <i type="logical" name="LVTOT"> F  </i>
   <i type="logical" name="LVHAR"> F  </i>
   <i type="logical" name="LELF"> F  </i>
   <i type="logical" name="LOPTICS"> F  </i>
   <v name="STM">      0.00000000      0.00000000      0.00000000      0.00000000      0.00000000      0.00000000      0.00000000</v>
  </separator>
  <separator name="performance" >
   <i type="int" name="NPAR">    28</i>
   <i type="int" name="NSIM">     4</i>
   <i type="int" name="NBLK">    -1</i>
   <i type="logical" name="LPLANE"> T  </i>
   <i type="logical" name="LSCALAPACK"> T  </i>
   <i type="logical" name="LSCAAWARE"> F  </i>
   <i type="logical" name="LSCALU"> F  </i>
   <i type="logical" name="LASYNC"> F  </i>
   <i type="logical" name="LORBITALREAL"> F  </i>
  </separator>
  <separator name="miscellaneous" >
   <i type="int" name="IDIOT">     3</i>
   <i type="int" name="ISPECIAL">     0</i>
   <i type="logical" name="LMUSIC"> F  </i>
   <v name="POMASS">      7.01000000     24.30500000    208.98000000     32.06600000     16.00000000</v>
   <v name="DARWINR">      0.00000000      0.00000000      0.00000000      0.00000000      0.00000000</v>
   <v name="DARWINV">      1.00000000      1.00000000      1.00000000      1.00000000      1.00000000</v>
   <i type="logical" name="LCORR"> T  </i>
  </separator>
  <i type="logical" name="GGA_COMPAT"> T  </i>
  <i type="logical" name="LBERRY"> F  </i>
  <i type="int" name="ICORELEVEL">     0</i>
  <i type="logical" name="LDAU"> F  </i>
  <i type="int" name="I_CONSTRAINED_M">     0</i>
  <separator name="electronic exchange-correlation" >
   <i type="string" name="GGA">--</i>
   <i type="int" name="VOSKOWN">     0</i>
   <i type="logical" name="LHFCALC"> F  </i>
   <i type="string" name="PRECFOCK"></i>
   <i type="logical" name="LSYMGRAD"> F  </i>
   <i type="logical" name="LHFONE"> F  </i>
   <i type="logical" name="LRHFCALC"> F  </i>
   <i type="logical" name="LTHOMAS"> F  </i>
   <i type="logical" name="LMODELHF"> F  </i>
   <i name="ENCUT4O">     -1.00000000</i>
   <i type="int" name="EXXOEP">     0</i>
   <i type="int" name="FOURORBIT">     0</i>
   <i name="AEXX">      0.00000000</i>
   <i name="HFALPHA">      0.00000000</i>
   <i name="MCALPHA">      0.00000000</i>
   <i name="ALDAX">      1.00000000</i>
   <i name="AGGAX">      1.00000000</i>
   <i name="ALDAC">      1.00000000</i>
   <i name="AGGAC">      1.00000000</i>
   <i type="int" name="NKREDX">     1</i>
   <i type="int" name="NKREDY">     1</i>
   <i type="int" name="NKREDZ">     1</i>
   <i type="logical" name="SHIFTRED"> F  </i>
   <i type="logical" name="ODDONLY"> F  </i>
   <i type="logical" name="EVENONLY"> F  </i>
   <i type="int" name="LMAXFOCK">     0</i>
   <i type="int" name="NMAXFOCKAE">     0</i>
   <i type="logical" name="LFOCKAEDFT"> F  </i>
   <i name="HFSCREEN">      0.00000000</i>
   <i name="HFSCREENC">      0.00000000</i>
   <i type="int" name="NBANDSGWLOW">     0</i>
  </separator>
  <separator name="vdW DFT" >
   <i type="logical" name="LUSE_VDW"> F  </i>
   <i name="Zab_VDW">     -0.84910000</i>
   <i name="PARAM1">      0.12340000</i>
   <i name="PARAM2">      1.00000000</i>
   <i name="PARAM3">      0.00000000</i>
  </separator>
  <separator name="model GW" >
   <i type="int" name="MODEL_GW">     0</i>
   <i name="MODEL_EPS0">     11.96848538</i>
   <i name="MODEL_ALPHA">      1.00000000</i>
  </separator>
  <separator name="linear response parameters" >
   <i type="logical" name="LEPSILON"> F  </i>
   <i type="logical" name="LRPA"> F  </i>
   <i type="logical" name="LNABLA"> F  </i>
   <i type="logical" name="LVEL"> F  </i>
   <i type="int" name="KINTER">     0</i>
   <i name="CSHIFT">      0.10000000</i>
   <i name="OMEGAMAX">     -1.00000000</i>
   <i name="DEG_THRESHOLD">      0.00200000</i>
   <i name="RTIME">     -0.10000000</i>
   <i name="WPLASMAI">      0.00000000</i>
   <v name="DFIELD">      0.00000000      0.00000000      0.00000000</v>
   <v name="WPLASMA">      0.00000000      0.00000000      0.00000000      0.00000000      0.00000000      0.00000000      0.00000000      0.00000000      0.00000000</v>
  </separator>
  <separator name="orbital magnetization" >
   <i type="logical" name="NUCIND"> F  </i>
   <v name="MAGPOS">      0.00000000      0.00000000      0.00000000</v>
   <i type="logical" name="LNICSALL"> T  </i>
   <i type="logical" name="ORBITALMAG"> F  </i>
   <i type="logical" name="LMAGBLOCH"> F  </i>
   <i type="logical" name="LCHIMAG"> F  </i>
   <i type="logical" name="LGAUGE"> T  </i>
   <i type="int" name="MAGATOM">     0</i>
   <v name="MAGDIPOL">      0.00000000      0.00000000      0.00000000</v>
   <v name="AVECCONST">      0.00000000      0.00000000      0.00000000</v>
  </separator>
  <separator name="response functions" >
   <i type="logical" name="LADDER"> F  </i>
   <i type="logical" name="LRPAFORCE"> F  </i>
   <i type="logical" name="LFXC"> F  </i>
   <i type="logical" name="LHARTREE"> T  </i>
   <i type="int" name="IBSE">     0</i>
   <v type="int" name="KPOINT">    -1     0     0     0</v>
   <i type="logical" name="LTCTE"> F  </i>
   <i type="logical" name="LTETE"> F  </i>
   <i type="logical" name="LTRIPLET"> F  </i>
   <i type="logical" name="LFXCEPS"> F  </i>
   <i type="logical" name="LFXHEG"> F  </i>
   <i type="int" name="NATURALO">     2</i>
   <i type="logical" name="L2ORDER"> F  </i>
   <i type="logical" name="LMP2LT"> F  </i>
   <i type="logical" name="LUSEW"> F  </i>
   <i name="ENCUTGW">     -2.00000000</i>
   <i name="ENCUTGWSOFT">     -2.00000000</i>
   <i name="ENCUTLF">     -1.00000000</i>
   <i type="int" name="LMAXMP2">    -1</i>
   <i name="SCISSOR">      0.00000000</i>
   <i type="int" name="NOMEGA">     0</i>
   <i type="int" name="NOMEGAR">     0</i>
   <i type="int" name="NBANDSGW">    -1</i>
   <i type="int" name="NBANDSO">    -1</i>
   <i type="int" name="NBANDSV">    -1</i>
   <i type="int" name="NELM">     1</i>
   <i type="int" name="NELMHF">     1</i>
   <i type="int" name="DIM">     3</i>
   <i type="int" name="ANTIRES">     0</i>
   <i name="OMEGAMAX">    -30.00000000</i>
   <i name="OMEGAMIN">    -30.00000000</i>
   <i name="OMEGATL">   -200.00000000</i>
   <i type="int" name="OMEGAGRID">   140</i>
   <i name="CSHIFT">     -0.10000000</i>
   <i type="logical" name="SELFENERGY"> F  </i>
   <i type="logical" name="LSPECTRAL"> F  </i>
   <i type="logical" name="LSPECTRALGW"> F  </i>
   <i type="logical" name="LSINGLES"> F  </i>
   <i type="logical" name="LFERMIGW"> F  </i>
   <i type="logical" name="ODDONLYGW"> F  </i>
   <i type="logical" name="EVENONLYGW"> F  </i>
   <i type="int" name="NKREDLFX">     1</i>
   <i type="int" name="NKREDLFY">     1</i>
   <i type="int" name="NKREDLFZ">     1</i>
   <i type="int" name="MAXMEM">  2800</i>
   <i type="int" name="TELESCOPE">     0</i>
   <i type="int" name="TAUPAR">     1</i>
   <i type="int" name="OMEGAPAR">    -1</i>
   <i name="LAMBDA">      1.00000000</i>
  </separator>
  <separator name="External order field" >
   <i name="OFIELD_KAPPA">      0.00000000</i>
   <v name="OFIELD_K">      0.00000000      0.00000000      0.00000000</v>
   <i name="OFIELD_Q6_NEAR">      0.00000000</i>
   <i name="OFIELD_Q6_FAR">      0.00000000</i>
   <i name="OFIELD_A">      0.00000000</i>
  </separator>
 </parameters>
 <atominfo>
  <atoms>      60 </atoms>
  <types>       5 </types>
  <array name="atoms" >
   <dimension dim="1">ion</dimension>
   <field type="string">element</field>
   <field type="int">atomtype</field>
   <set>
    <rc><c>Li</c><c>   1</c></rc>
    <rc><c>Li</c><c>   1</c></rc>
    <rc><c>Li</c><c>   1</c></rc>
    <rc><c>Li</c><c>   1</c></rc>
    <rc><c>Li</c><c>   1</c></rc>
    <rc><c>Li</c><c>   1</c></rc>
    <rc><c>Li</c><c>   1</c></rc>
    <rc><c>Li</c><c>   1</c></rc>
    <rc><c>Mg</c><c>   2</c></rc>
    <rc><c>Mg</c><c>   2</c></rc>
    <rc><c>Mg</c><c>   2</c></rc>
    <rc><c>Mg</c><c>   2</c></rc>
    <rc><c>Bi</c><c>   3</c></rc>
    <rc><c>Bi</c><c>   3</c></rc>
    <rc><c>Bi</c><c>   3</c></rc>
    <rc><c>Bi</c><c>   3</c></rc>
    <rc><c>Bi</c><c>   3</c></rc>
    <rc><c>Bi</c><c>   3</c></rc>
    <rc><c>Bi</c><c>   3</c></rc>
    <rc><c>Bi</c><c>   3</c></rc>
    <rc><c>Bi</c><c>   3</c></rc>
    <rc><c>Bi</c><c>   3</c></rc>
    <rc><c>Bi</c><c>   3</c></rc>
    <rc><c>Bi</c><c>   3</c></rc>
    <rc><c>Bi</c><c>   3</c></rc>
    <rc><c>Bi</c><c>   3</c></rc>
    <rc><c>Bi</c><c>   3</c></rc>
    <rc><c>Bi</c><c>   3</c></rc>
    <rc><c>S </c><c>   4</c></rc>
    <rc><c>S </c><c>   4</c></rc>
    <rc><c>S </c><c>   4</c></rc>
    <rc><c>S </c><c>   4</c></rc>
    <rc><c>S </c><c>   4</c></rc>
    <rc><c>S </c><c>   4</c></rc>
    <rc><c>S </c><c>   4</c></rc>
    <rc><c>S </c><c>   4</c></rc>
    <rc><c>S </c><c>   4</c></rc>
    <rc><c>S </c><c>   4</c></rc>
    <rc><c>S </c><c>   4</c></rc>
    <rc><c>S </c><c>   4</c></rc>
    <rc><c>S </c><c>   4</c></rc>
    <rc><c>S </c><c>   4</c></rc>
    <rc><c>S </c><c>   4</c></rc>
    <rc><c>S </c><c>   4</c></rc>
    <rc><c>O </c><c>   5</c></rc>
    <rc><c>O </c><c>   5</c></rc>
    <rc><c>O </c><c>   5</c></rc>
    <rc><c>O </c><c>   5</c></rc>
    <rc><c>O </c><c>   5</c></rc>
    <rc><c>O </c><c>   5</c></rc>
    <rc><c>O </c><c>   5</c></rc>
    <rc><c>O </c><c>   5</c></rc>
    <rc><c>O </c><c>   5</c></rc>
    <rc><c>O </c><c>   5</c></rc>
    <rc><c>O </c><c>   5</c></rc>
    <rc><c>O </c><c>   5</c></rc>
    <rc><c>O </c><c>   5</c></rc>
    <rc><c>O </c><c>   5</c></rc>
    <rc><c>O </c><c>   5</c></rc>
    <rc><c>O </c><c>   5</c></rc>
   </set>
  </array>
  <array name="atomtypes" >
   <dimension dim="1">type</dimension>
   <field type="int">atomspertype</field>
   <field type="string">element</field>
   <field>mass</field>
   <field>valence</field>
   <field type="string">pseudopotential</field>
   <set>
    <rc><c>   8</c><c>Li</c><c>      7.01000000</c><c>      3.00000000</c><c>  PAW_PBE Li_sv 10Sep2004               </c></rc>
    <rc><c>   4</c><c>Mg</c><c>     24.30500000</c><c>      2.00000000</c><c>  PAW_PBE Mg 13Apr2007                  </c></rc>
    <rc><c>  16</c><c>Bi</c><c>    208.98000000</c><c>     15.00000000</c><c>  PAW_PBE Bi_d 06Sep2000                </c></rc>
    <rc><c>  16</c><c>S </c><c>     32.06600000</c><c>      6.00000000</c><c>  PAW_PBE S 06Sep2000                   </c></rc>
    <rc><c>  16</c><c>O </c><c>     16.00000000</c><c>      6.00000000</c><c>  PAW_PBE O 08Apr2002                   </c></rc>
   </set>
  </array>
 </atominfo>
 <structure name="initialpos" >
  <crystal>
   <varray name="basis" >
    <v>      11.17850000       0.00000000       0.00000000 </v>
    <v>       0.00000000       9.57460000       0.00000000 </v>
    <v>       0.00000000       0.00000000      11.18240000 </v>
   </varray>
   <i name="volume">   1196.84853820 </i>
   <varray name="rec_basis" >
    <v>       0.08945744       0.00000000       0.00000000 </v>
    <v>       0.00000000       0.10444301       0.00000000 </v>
    <v>       0.00000000       0.00000000       0.08942624 </v>
   </varray>
  </crystal>
  <varray name="positions" >
   <v>       0.37539000       0.00017000       0.43687000 </v>
   <v>       0.12461000       0.99984000       0.18687000 </v>
   <v>       0.37461000       0.00017000       0.18687000 </v>
   <v>       0.62539000       0.99984000       0.43687000 </v>
   <v>       0.87539000       0.00017000       0.43687000 </v>
   <v>       0.62461000       0.99984000       0.18687000 </v>
   <v>       0.87461000       0.00017000       0.18687000 </v>
   <v>       0.12461000       0.99984000       0.68687000 </v>
   <v>       0.12539000       0.99984000       0.93687000 </v>
   <v>       0.37461000       0.00017000       0.68687000 </v>
   <v>       0.62539000       0.99984000       0.93687000 </v>
   <v>       0.87461000       0.00017000       0.68687000 </v>
   <v>       0.00013000       0.29519000       0.06281000 </v>
   <v>       0.25013000       0.70481000       0.06281000 </v>
   <v>       0.24987000       0.29519000       0.31282000 </v>
   <v>       0.49987000       0.70481000       0.31282000 </v>
   <v>       0.50013000       0.29519000       0.06281000 </v>
   <v>       0.75013000       0.70481000       0.06281000 </v>
   <v>       0.74987000       0.29519000       0.31282000 </v>
   <v>       0.99987000       0.70481000       0.31282000 </v>
   <v>       0.00013000       0.29519000       0.56281000 </v>
   <v>       0.25013000       0.70481000       0.56281000 </v>
   <v>       0.24987000       0.29519000       0.81282000 </v>
   <v>       0.49987000       0.70481000       0.81282000 </v>
   <v>       0.50013000       0.29519000       0.56281000 </v>
   <v>       0.75013000       0.70481000       0.56281000 </v>
   <v>       0.74987000       0.29519000       0.81282000 </v>
   <v>       0.99987000       0.70481000       0.81282000 </v>
   <v>       0.25005000       0.32677000       0.06286000 </v>
   <v>       0.00005000       0.67323000       0.06286000 </v>
   <v>       0.49995000       0.32677000       0.31286000 </v>
   <v>       0.24995000       0.67323000       0.31286000 </v>
   <v>       0.75005000       0.32677000       0.06286000 </v>
   <v>       0.50005000       0.67323000       0.06286000 </v>
   <v>       0.99995000       0.32677000       0.31286000 </v>
   <v>       0.74995000       0.67323000       0.31286000 </v>
   <v>       0.25005000       0.32677000       0.56286000 </v>
   <v>       0.00005000       0.67323000       0.56286000 </v>
   <v>       0.49995000       0.32677000       0.81286000 </v>
   <v>       0.24995000       0.67323000       0.81286000 </v>
   <v>       0.75005000       0.32677000       0.56286000 </v>
   <v>       0.50005000       0.67323000       0.56286000 </v>
   <v>       0.99995000       0.32677000       0.81286000 </v>
   <v>       0.74995000       0.67323000       0.81286000 </v>
   <v>       0.49987000       0.07798000       0.06246000 </v>
   <v>       0.24987000       0.92202000       0.06246000 </v>
   <v>       0.25013000       0.07798000       0.31246000 </v>
   <v>       0.00013000       0.92202000       0.31246000 </v>
   <v>       0.99987000       0.07798000       0.06246000 </v>
   <v>       0.74987000       0.92202000       0.06246000 </v>
   <v>       0.75013000       0.07798000       0.31246000 </v>
   <v>       0.50013000       0.92202000       0.31246000 </v>
   <v>       0.49987000       0.07798000       0.56246000 </v>
   <v>       0.24987000       0.92202000       0.56246000 </v>
   <v>       0.25013000       0.07798000       0.81246000 </v>
   <v>       0.00013000       0.92202000       0.81246000 </v>
   <v>       0.99987000       0.07798000       0.56246000 </v>
   <v>       0.74987000       0.92202000       0.56246000 </v>
   <v>       0.75013000       0.07798000       0.81246000 </v>
   <v>       0.50013000       0.92202000       0.81246000 </v>
  </varray>
 </structure>
 <calculation>
  <scstep>
   <time name="dav">   59.90   60.35</time>
   <time name="total">   60.07   60.53</time>
   <energy>
    <i name="alphaZ">   1067.11773629 </i>
    <i name="ewald"> -30644.49464588 </i>
    <i name="hartreedc"> -12709.49004289 </i>
    <i name="XCdc">   1321.04950038 </i>
    <i name="pawpsdc">  36729.48549953 </i>
    <i name="pawaedc"> -36149.63912807 </i>
    <i name="eentropy">      0.00000000 </i>
    <i name="bandstr">   1834.46067445 </i>
    <i name="atom">  44408.54722957 </i>
    <i name="e_fr_energy">   5857.03682337 </i>
    <i name="e_wo_entrp">   5857.03682337 </i>
    <i name="e_0_energy">   5857.03682337 </i>
   </energy>
  </scstep>
  <scstep>
   <time name="dav">   61.02   61.02</time>
   <time name="total">   61.03   61.03</time>
   <energy>
    <i name="e_fr_energy">    777.71973062 </i>
    <i name="e_wo_entrp">    777.71973062 </i>
    <i name="e_0_energy">    777.71973062 </i>
   </energy>
  </scstep>
  <scstep>
   <time name="dav">   70.86   70.94</time>
   <time name="total">   70.86   70.94</time>
   <energy>
    <i name="e_fr_energy">   -245.94990694 </i>
    <i name="e_wo_entrp">   -245.94990694 </i>
    <i name="e_0_energy">   -245.94990694 </i>
   </energy>
  </scstep>
  <scstep>
   <time name="dav">   72.61   72.60</time>
   <time name="total">   72.61   72.60</time>
   <energy>
    <i name="e_fr_energy">   -341.59830378 </i>
    <i name="e_wo_entrp">   -341.59830378 </i>
    <i name="e_0_energy">   -341.59830378 </i>
   </energy>
  </scstep>
  <scstep>
   <time name="dav">   95.55   95.62</time>
   <time name="total">   96.27   96.33</time>
   <energy>
    <i name="e_fr_energy">   -349.82680842 </i>
    <i name="e_wo_entrp">   -349.82680842 </i>
    <i name="e_0_energy">   -349.82680842 </i>
   </energy>
  </scstep>
  <scstep>
   <time name="dav">   85.32   86.12</time>
   <time name="total">   86.11   86.91</time>
   <energy>
    <i name="e_fr_energy">   -292.63516094 </i>
    <i name="e_wo_entrp">   -292.63516094 </i>
    <i name="e_0_energy">   -292.63516094 </i>
   </energy>
  </scstep>
  <scstep>
   <time name="dav">   65.69   66.37</time>
   <time name="total">   66.47   67.16</time>
   <energy>
    <i name="e_fr_energy">   -295.32198516 </i>
    <i name="e_wo_entrp">   -295.32198516 </i>
    <i name="e_0_energy">   -295.32198516 </i>
   </energy>
  </scstep>
  <scstep>
   <time name="dav">   78.78   79.28</time>
   <time name="total">   79.56   80.06</time>
   <energy>
    <i name="e_fr_energy">   -294.17281281 </i>
    <i name="e_wo_entrp">   -294.17281281 </i>
    <i name="e_0_energy">   -294.17281281 </i>
   </energy>
  </scstep>
  <scstep>
   <time name="dav">   80.25   80.39</time>
   <time name="total">   81.03   81.18</time>
   <energy>
    <i name="e_fr_energy">   -293.56729028 </i>
    <i name="e_wo_entrp">   -293.56729028 </i>
    <i name="e_0_energy">   -293.56729028 </i>
   </energy>
  </scstep>
  <scstep>
   <time name="dav">   74.13   74.19</time>
   <time name="total">   74.91   74.98</time>
   <energy>
    <i name="e_fr_energy">   -293.57425843 </i>
    <i name="e_wo_entrp">   -293.57425843 </i>
    <i name="e_0_energy">   -293.57425843 </i>
   </energy>
  </scstep>
  <scstep>
   <time name="dav">   76.11   76.54</time>
   <time name="total">   76.89   77.33</time>
   <energy>
    <i name="e_fr_energy">   -293.58266577 </i>
    <i name="e_wo_entrp">   -293.58266577 </i>
    <i name="e_0_energy">   -293.58266577 </i>
   </energy>
  </scstep>
  <scstep>
   <time name="dav">   77.02   77.39</time>
   <time name="total">   77.80   78.18</time>
   <energy>
    <i name="e_fr_energy">   -293.58569583 </i>
    <i name="e_wo_entrp">   -293.58569583 </i>
    <i name="e_0_energy">   -293.58569583 </i>
   </energy>
  </scstep>
  <scstep>
   <time name="dav">   74.73   75.88</time>
   <time name="total">   75.52   76.67</time>
   <energy>
    <i name="e_fr_energy">   -293.58688771 </i>
    <i name="e_wo_entrp">   -293.58688771 </i>
    <i name="e_0_energy">   -293.58688771 </i>
   </energy>
  </scstep>
  <scstep>
   <time name="dav">   76.58   77.03</time>
   <time name="total">   77.40   77.85</time>
   <energy>
    <i name="e_fr_energy">   -293.58708863 </i>
    <i name="e_wo_entrp">   -293.58708863 </i>
    <i name="e_0_energy">   -293.58708863 </i>
   </energy>
  </scstep>
  <scstep>
   <time name="dav">   76.70   77.00</time>
   <time name="total">   77.48   77.79</time>
   <energy>
    <i name="e_fr_energy">   -293.58713792 </i>
    <i name="e_wo_entrp">   -293.58713792 </i>
    <i name="e_0_energy">   -293.58713792 </i>
   </energy>
  </scstep>
  <scstep>
   <time name="dav">   68.64   68.76</time>
   <time name="total">   69.42   69.54</time>
   <energy>
    <i name="e_fr_energy">   -293.58715684 </i>
    <i name="e_wo_entrp">   -293.58715684 </i>
    <i name="e_0_energy">   -293.58715684 </i>
   </energy>
  </scstep>
  <scstep>
   <time name="dav">   69.54   69.57</time>
   <time name="total">   70.33   70.36</time>
   <energy>
    <i name="e_fr_energy">   -293.58715883 </i>
    <i name="e_wo_entrp">   -293.58715883 </i>
    <i name="e_0_energy">   -293.58715883 </i>
   </energy>
  </scstep>
  <scstep>
   <time name="dav">   56.10   56.22</time>
   <time name="total">   56.18   56.30</time>
   <energy>
    <i name="alphaZ">   1067.11773629 </i>
    <i name="ewald"> -30644.49464588 </i>
    <i name="hartreedc"> -12950.29726294 </i>
    <i name="XCdc">   1345.29268934 </i>
    <i name="pawpsdc">  43755.35008402 </i>
    <i name="pawaedc"> -43149.39917685 </i>
    <i name="eentropy">      0.00000000 </i>
    <i name="bandstr">  -4125.70381276 </i>
    <i name="atom">  44408.54722957 </i>
    <i name="e_fr_energy">   -293.58715920 </i>
    <i name="e_wo_entrp">   -293.58715920 </i>
    <i name="e_0_energy">   -293.58715920 </i>
   </energy>
  </scstep>
  <structure>
   <crystal>
    <varray name="basis" >
     <v>      11.17850000       0.00000000       0.00000000 </v>
     <v>       0.00000000       9.57460000       0.00000000 </v>
     <v>       0.00000000       0.00000000      11.18240000 </v>
    </varray>
    <i name="volume">   1196.84853820 </i>
    <varray name="rec_basis" >
     <v>       0.08945744       0.00000000       0.00000000 </v>
     <v>       0.00000000       0.10444301       0.00000000 </v>
     <v>       0.00000000       0.00000000       0.08942624 </v>
    </varray>
   </crystal>
   <varray name="positions" >
    <v>       0.37539000       0.00017000       0.43687000 </v>
    <v>       0.12461000       0.99984000       0.18687000 </v>
    <v>       0.37461000       0.00017000       0.18687000 </v>
    <v>       0.62539000       0.99984000       0.43687000 </v>
    <v>       0.87539000       0.00017000       0.43687000 </v>
    <v>       0.62461000       0.99984000       0.18687000 </v>
    <v>       0.87461000       0.00017000       0.18687000 </v>
    <v>       0.12461000       0.99984000       0.68687000 </v>
    <v>       0.12539000       0.99984000       0.93687000 </v>
    <v>       0.37461000       0.00017000       0.68687000 </v>
    <v>       0.62539000       0.99984000       0.93687000 </v>
    <v>       0.87461000       0.00017000       0.68687000 </v>
    <v>       0.00013000       0.29519000       0.06281000 </v>
    <v>       0.25013000       0.70481000       0.06281000 </v>
    <v>       0.24987000       0.29519000       0.31282000 </v>
    <v>       0.49987000       0.70481000       0.31282000 </v>
    <v>       0.50013000       0.29519000       0.06281000 </v>
    <v>       0.75013000       0.70481000       0.06281000 </v>
    <v>       0.74987000       0.29519000       0.31282000 </v>
    <v>       0.99987000       0.70481000       0.31282000 </v>
    <v>       0.00013000       0.29519000       0.56281000 </v>
    <v>       0.25013000       0.70481000       0.56281000 </v>
    <v>       0.24987000       0.29519000       0.81282000 </v>
    <v>       0.49987000       0.70481000       0.81282000 </v>
    <v>       0.50013000       0.29519000       0.56281000 </v>
    <v>       0.75013000       0.70481000       0.56281000 </v>
    <v>       0.74987000       0.29519000       0.81282000 </v>
    <v>       0.99987000       0.70481000       0.81282000 </v>
    <v>       0.25005000       0.32677000       0.06286000 </v>
    <v>       0.00005000       0.67323000       0.06286000 </v>
    <v>       0.49995000       0.32677000       0.31286000 </v>
    <v>       0.24995000       0.67323000       0.31286000 </v>
    <v>       0.75005000       0.32677000       0.06286000 </v>
    <v>       0.50005000       0.67323000       0.06286000 </v>
    <v>       0.99995000       0.32677000       0.31286000 </v>
    <v>       0.74995000       0.67323000       0.31286000 </v>
    <v>       0.25005000       0.32677000       0.56286000 </v>
    <v>       0.00005000       0.67323000       0.56286000 </v>
    <v>       0.49995000       0.32677000       0.81286000 </v>
    <v>       0.24995000       0.67323000       0.81286000 </v>
    <v>       0.75005000       0.32677000       0.56286000 </v>
    <v>       0.50005000       0.67323000       0.56286000 </v>
    <v>       0.99995000       0.32677000       0.81286000 </v>
    <v>       0.74995000       0.67323000       0.81286000 </v>
    <v>       0.49987000       0.07798000       0.06246000 </v>
    <v>       0.24987000       0.92202000       0.06246000 </v>
    <v>       0.25013000       0.07798000       0.31246000 </v>
    <v>       0.00013000       0.92202000       0.31246000 </v>
    <v>       0.99987000       0.07798000       0.06246000 </v>
    <v>       0.74987000       0.92202000       0.06246000 </v>
    <v>       0.75013000       0.07798000       0.31246000 </v>
    <v>       0.50013000       0.92202000       0.31246000 </v>
    <v>       0.49987000       0.07798000       0.56246000 </v>
    <v>       0.24987000       0.92202000       0.56246000 </v>
    <v>       0.25013000       0.07798000       0.81246000 </v>
    <v>       0.00013000       0.92202000       0.81246000 </v>
    <v>       0.99987000       0.07798000       0.56246000 </v>
    <v>       0.74987000       0.92202000       0.56246000 </v>
    <v>       0.75013000       0.07798000       0.81246000 </v>
    <v>       0.50013000       0.92202000       0.81246000 </v>
   </varray>
  </structure>
  <varray name="forces" >
   <v>      -0.33658146       0.06360932      -0.34656070 </v>
   <v>       0.00487549       0.00103571       0.68455257 </v>
   <v>      -0.15736945       0.06268459      -0.12767323 </v>
   <v>      -0.00841958       0.00014590       0.30539838 </v>
   <v>       0.32570270      -0.06610205      -0.35097321 </v>
   <v>       0.00299085       0.00101413       0.18488656 </v>
   <v>       0.17194597      -0.06283087      -0.13177249 </v>
   <v>       0.00515609      -0.00096430      -0.68675708 </v>
   <v>      -0.02165294       0.00532961       0.48029067 </v>
   <v>       0.81589460      -0.12138059       0.37311727 </v>
   <v>      -0.02566415       0.00536223      -0.53223595 </v>
   <v>      -0.77023034       0.10926755       0.37673222 </v>
   <v>      -0.18782748      -0.00425001       0.22844894 </v>
   <v>       0.17795396      -0.00804192       0.23023399 </v>
   <v>      -0.14720326      -1.02715624       0.09551149 </v>
   <v>      -0.03425257      -0.01705236      -0.01451468 </v>
   <v>      -0.19831895      -0.01458199       0.14796723 </v>
   <v>       0.18629157       0.00236121       0.14993066 </v>
   <v>       0.04518167       0.01716067      -0.01615770 </v>
   <v>       0.16287615       1.02367655       0.09560959 </v>
   <v>       0.18658033       0.05845994      -0.47431783 </v>
   <v>      -0.19679726      -0.05267864      -0.47538263 </v>
   <v>       0.18242794       1.01011938       0.12988491 </v>
   <v>       0.04446415       0.09131861      -0.00935767 </v>
   <v>       0.18763764      -0.00769503      -0.14117482 </v>
   <v>      -0.20203872       0.00182795      -0.14313666 </v>
   <v>      -0.03337965      -0.07239677      -0.00779044 </v>
   <v>      -0.17067097      -0.99819832       0.12933699 </v>
   <v>      -0.06799490       0.14625751      -0.28284601 </v>
   <v>       0.06645973      -0.14620598      -0.28118063 </v>
   <v>       0.10777797       0.23266131       0.00791280 </v>
   <v>       0.11801696      -0.20048048      -0.01047608 </v>
   <v>      -0.05958747       0.14435685      -0.08660092 </v>
   <v>       0.05922208      -0.14476966      -0.08413300 </v>
   <v>      -0.11739343       0.20067600      -0.00738064 </v>
   <v>      -0.10570739      -0.23199789       0.00658862 </v>
   <v>       0.05102254       0.12546194       0.30672374 </v>
   <v>      -0.05365207      -0.12682827       0.30438486 </v>
   <v>      -0.08796588       0.05491172      -0.00541714 </v>
   <v>      -0.10930072      -0.06383010      -0.01541050 </v>
   <v>       0.07035669       0.14247338       0.08254716 </v>
   <v>      -0.07016560      -0.14483968       0.07926779 </v>
   <v>       0.10875921       0.06468858      -0.01900842 </v>
   <v>       0.09054455      -0.05320952      -0.00332697 </v>
   <v>       1.12542870       0.04919406       0.05652529 </v>
   <v>      -1.11487248      -0.04250023      -0.09692370 </v>
   <v>       0.65428277       0.84267107      -0.60351574 </v>
   <v>      -0.66979947      -0.84008940      -0.60244069 </v>
   <v>       1.13387928       0.04251909      -0.10443323 </v>
   <v>      -1.10545483      -0.04889279       0.06434717 </v>
   <v>      -0.07865939       0.03142936      -0.00010953 </v>
   <v>       0.06842933      -0.03188627      -0.00049121 </v>
   <v>      -1.10001344       0.05546076      -0.05878348 </v>
   <v>       1.03530376       0.09490491       1.27132524 </v>
   <v>      -0.72135268      -0.70276183      -0.61868405 </v>
   <v>       0.70226499       0.70342688      -0.62593486 </v>
   <v>      -1.03472797      -0.09788104       1.27379189 </v>
   <v>       1.10987182      -0.05103528      -0.06049666 </v>
   <v>       0.06988364       0.23228869      -0.01739489 </v>
   <v>      -0.08442863      -0.23621794      -0.02252259 </v>
  </varray>
  <varray name="stress" >
   <v>     -11.24760326       0.44767197      -0.04399971 </v>
   <v>       0.44767218     -13.91001700      -0.00166679 </v>
   <v>      -0.04399985      -0.00166677      -7.48776782 </v>
  </varray>
  <energy>
   <i name="e_fr_energy">   -307.16001093 </i>
   <i name="e_wo_entrp">   -307.16001093 </i>
   <i name="e_0_energy">      0.00000000 </i>
  </energy>
  <time name="totalsc"> 1438.15 1444.13</time>
  <eigenvalues>
   <array>
    <dimension dim="1">band</dimension>
    <dimension dim="2">kpoint</dimension>
    <dimension dim="3">spin</dimension>
    <field>eigene</field>
    <field>occ</field>
    <set>
     <set comment="spin 1">
      <set comment="kpoint 1">
       <r>  -40.2956    1.0000 </r>
       <r>  -39.8122    1.0000 </r>
       <r>  -39.7376    1.0000 </r>
       <r>  -39.6302    1.0000 </r>
       <r>  -39.6276    1.0000 </r>
       <r>  -39.5787    1.0000 </r>
       <r>  -39.5763    1.0000 </r>
       <r>  -39.4665    1.0000 </r>
       <r>  -18.9384    1.0000 </r>
       <r>  -18.9352    1.0000 </r>
       <r>  -18.8680    1.0000 </r>
       <r>  -18.8660    1.0000 </r>
       <r>  -18.8609    1.0000 </r>
       <r>  -18.8588    1.0000 </r>
       <r>  -18.7683    1.0000 </r>
       <r>  -18.7654    1.0000 </r>
       <r>  -18.7469    1.0000 </r>
       <r>  -18.7442    1.0000 </r>
       <r>  -18.7194    1.0000 </r>
       <r>  -18.7150    1.0000 </r>
       <r>  -18.7116    1.0000 </r>
       <r>  -18.7071    1.0000 </r>
       <r>  -18.6990    1.0000 </r>
       <r>  -18.6934    1.0000 </r>
       <r>  -18.6770    1.0000 </r>
       <r>  -18.6754    1.0000 </r>
       <r>  -18.6704    1.0000 </r>
       <r>  -18.6688    1.0000 </r>
       <r>  -18.6660    1.0000 </r>
       <r>  -18.6644    1.0000 </r>
       <r>  -18.6626    1.0000 </r>
       <r>  -18.6611    1.0000 </r>
       <r>  -18.6606    1.0000 </r>
       <r>  -18.6579    1.0000 </r>
       <r>  -18.6568    1.0000 </r>
       <r>  -18.6548    1.0000 </r>
       <r>  -18.6535    1.0000 </r>
       <r>  -18.6528    1.0000 </r>
       <r>  -18.6523    1.0000 </r>
       <r>  -18.6492    1.0000 </r>
       <r>  -18.6482    1.0000 </r>
       <r>  -18.6455    1.0000 </r>
       <r>  -18.6447    1.0000 </r>
       <r>  -18.6431    1.0000 </r>
       <r>  -18.6428    1.0000 </r>
       <r>  -18.6412    1.0000 </r>
       <r>  -18.6390    1.0000 </r>
       <r>  -18.6372    1.0000 </r>
       <r>  -18.5801    1.0000 </r>
       <r>  -18.5789    1.0000 </r>
       <r>  -18.5668    1.0000 </r>
       <r>  -18.5666    1.0000 </r>
       <r>  -18.5659    1.0000 </r>
       <r>  -18.5606    1.0000 </r>
       <r>  -18.5542    1.0000 </r>
       <r>  -18.5531    1.0000 </r>
       <r>  -18.5373    1.0000 </r>
       <r>  -18.5313    1.0000 </r>
       <r>  -18.5197    1.0000 </r>
       <r>  -18.5181    1.0000 </r>
       <r>  -18.5176    1.0000 </r>
       <r>  -18.5160    1.0000 </r>
       <r>  -18.5075    1.0000 </r>
       <r>  -18.5052    1.0000 </r>
       <r>  -18.5052    1.0000 </r>
       <r>  -18.5023    1.0000 </r>
       <r>  -18.5012    1.0000 </r>
       <r>  -18.4973    1.0000 </r>
       <r>  -18.4923    1.0000 </r>
       <r>  -18.4902    1.0000 </r>
       <r>  -18.4902    1.0000 </r>
       <r>  -18.4886    1.0000 </r>
       <r>  -18.4863    1.0000 </r>
       <r>  -18.4837    1.0000 </r>
       <r>  -18.4183    1.0000 </r>
       <r>  -18.4170    1.0000 </r>
       <r>  -18.4100    1.0000 </r>
       <r>  -18.4094    1.0000 </r>
       <r>  -18.4073    1.0000 </r>
       <r>  -18.4057    1.0000 </r>
       <r>  -18.3970    1.0000 </r>
       <r>  -18.3964    1.0000 </r>
       <r>  -18.3178    1.0000 </r>
       <r>  -18.3170    1.0000 </r>
       <r>  -18.2025    1.0000 </r>
       <r>  -18.2017    1.0000 </r>
       <r>  -18.1898    1.0000 </r>
       <r>  -18.1885    1.0000 </r>
       <r>  -13.5813    1.0000 </r>
       <r>  -13.4741    1.0000 </r>
       <r>  -12.9260    1.0000 </r>
       <r>  -12.8382    1.0000 </r>
       <r>  -12.8151    1.0000 </r>
       <r>  -12.7778    1.0000 </r>
       <r>  -12.7318    1.0000 </r>
       <r>  -12.7288    1.0000 </r>
       <r>  -12.7158    1.0000 </r>
       <r>  -12.6879    1.0000 </r>
       <r>  -12.6815    1.0000 </r>
       <r>  -12.6506    1.0000 </r>
       <r>  -12.5877    1.0000 </r>
       <r>  -12.5434    1.0000 </r>
       <r>  -11.9754    1.0000 </r>
       <r>  -11.9219    1.0000 </r>
       <r>   -9.3410    1.0000 </r>
       <r>   -9.0459    1.0000 </r>
       <r>   -8.5449    1.0000 </r>
       <r>   -8.5128    1.0000 </r>
       <r>   -8.5011    1.0000 </r>
       <r>   -8.4555    1.0000 </r>
       <r>   -8.3226    1.0000 </r>
       <r>   -8.2922    1.0000 </r>
       <r>   -8.2740    1.0000 </r>
       <r>   -8.2309    1.0000 </r>
       <r>   -8.0410    1.0000 </r>
       <r>   -8.0399    1.0000 </r>
       <r>   -8.0055    1.0000 </r>
       <r>   -8.0045    1.0000 </r>
       <r>   -7.3692    1.0000 </r>
       <r>   -7.3684    1.0000 </r>
       <r>   -6.3795    1.0000 </r>
       <r>   -6.3777    1.0000 </r>
       <r>   -6.3583    1.0000 </r>
       <r>   -6.3570    1.0000 </r>
       <r>   -5.5326    1.0000 </r>
       <r>   -5.4997    1.0000 </r>
       <r>   -5.3750    1.0000 </r>
       <r>   -5.3551    1.0000 </r>
       <r>   -5.3516    1.0000 </r>
       <r>   -5.2660    1.0000 </r>
       <r>   -5.2225    1.0000 </r>
       <r>   -5.1878    1.0000 </r>
       <r>   -5.1352    1.0000 </r>
       <r>   -5.0684    1.0000 </r>
       <r>   -3.8202    1.0000 </r>
       <r>   -3.6682    1.0000 </r>
       <r>   -1.4907    1.0000 </r>
       <r>   -1.3168    1.0000 </r>
       <r>   -1.1230    1.0000 </r>
       <r>   -1.0078    1.0000 </r>
       <r>   -0.5664    1.0000 </r>
       <r>   -0.5418    1.0000 </r>
       <r>   -0.5090    1.0000 </r>
       <r>   -0.4833    1.0000 </r>
       <r>   -0.2008    1.0000 </r>
       <r>   -0.1850    1.0000 </r>
       <r>   -0.1772    1.0000 </r>
       <r>   -0.1482    1.0000 </r>
       <r>    0.0407    1.0000 </r>
       <r>    0.1199    1.0000 </r>
       <r>    0.2279    1.0000 </r>
       <r>    0.4216    1.0000 </r>
       <r>    0.4491    1.0000 </r>
       <r>    0.5373    1.0000 </r>
       <r>    0.5855    1.0000 </r>
       <r>    0.5868    1.0000 </r>
       <r>    0.6861    1.0000 </r>
       <r>    0.7077    1.0000 </r>
       <r>    0.7347    1.0000 </r>
       <r>    0.7605    1.0000 </r>
       <r>    0.7990    1.0000 </r>
       <r>    0.8483    1.0000 </r>
       <r>    0.9263    1.0000 </r>
       <r>    0.9533    1.0000 </r>
       <r>    0.9904    1.0000 </r>
       <r>    0.9961    1.0000 </r>
       <r>    1.0110    1.0000 </r>
       <r>    1.0411    1.0000 </r>
       <r>    1.0478    1.0000 </r>
       <r>    1.2240    1.0000 </r>
       <r>    1.2703    1.0000 </r>
       <r>    1.3207    1.0000 </r>
       <r>    1.3384    1.0000 </r>
       <r>    1.3591    1.0000 </r>
       <r>    1.3923    1.0000 </r>
       <r>    1.4304    1.0000 </r>
       <r>    1.5103    1.0000 </r>
       <r>    1.5216    1.0000 </r>
       <r>    1.5652    1.0000 </r>
       <r>    1.6444    1.0000 </r>
       <r>    1.7126    1.0000 </r>
       <r>    1.7214    1.0000 </r>
       <r>    1.7892    1.0000 </r>
       <r>    1.8243    1.0000 </r>
       <r>    1.8319    1.0000 </r>
       <r>    1.8352    1.0000 </r>
       <r>    1.9256    1.0000 </r>
       <r>    1.9635    1.0000 </r>
       <r>    2.0246    1.0000 </r>
       <r>    2.1427    1.0000 </r>
       <r>    2.2326    1.0000 </r>
       <r>    2.2395    1.0000 </r>
       <r>    2.3195    1.0000 </r>
       <r>    2.4135    1.0000 </r>
       <r>    2.5545    1.0000 </r>
       <r>    2.5552    1.0000 </r>
       <r>    2.5719    1.0000 </r>
       <r>    2.5783    1.0000 </r>
       <r>    2.5990    1.0000 </r>
       <r>    2.6028    1.0000 </r>
       <r>    2.6313    1.0000 </r>
       <r>    2.6324    1.0000 </r>
       <r>    2.6633    1.0000 </r>
       <r>    2.6805    1.0000 </r>
       <r>    2.7385    1.0000 </r>
       <r>    2.7599    1.0000 </r>
       <r>    2.8073    1.0000 </r>
       <r>    2.8227    1.0000 </r>
       <r>    2.8573    1.0000 </r>
       <r>    2.8724    1.0000 </r>
       <r>    2.9177    1.0000 </r>
       <r>    2.9656    1.0000 </r>
       <r>    3.0050    1.0000 </r>
       <r>    3.0090    1.0000 </r>
       <r>    3.0502    1.0000 </r>
       <r>    3.1036    1.0000 </r>
       <r>    3.1064    1.0000 </r>
       <r>    3.1290    1.0000 </r>
       <r>    3.1514    1.0000 </r>
       <r>    3.1563    1.0000 </r>
       <r>    3.1670    1.0000 </r>
       <r>    3.2114    1.0000 </r>
       <r>    3.2860    1.0000 </r>
       <r>    3.2967    1.0000 </r>
       <r>    3.3979    1.0000 </r>
       <r>    3.4261    1.0000 </r>
       <r>    3.4571    1.0000 </r>
       <r>    3.5589    1.0000 </r>
       <r>    4.1748    1.0000 </r>
       <r>    4.1776    1.0000 </r>
       <r>    4.2153    1.0000 </r>
       <r>    4.2176    1.0000 </r>
       <r>    5.0308    0.0000 </r>
       <r>    5.0369    0.0000 </r>
       <r>    5.1522    0.0000 </r>
       <r>    5.1609    0.0000 </r>
       <r>    5.7325    0.0000 </r>
       <r>    5.7364    0.0000 </r>
       <r>    5.8107    0.0000 </r>
       <r>    5.8135    0.0000 </r>
       <r>    6.0845    0.0000 </r>
       <r>    6.1078    0.0000 </r>
       <r>    6.1254    0.0000 </r>
       <r>    6.1330    0.0000 </r>
       <r>    6.2182    0.0000 </r>
       <r>    6.2303    0.0000 </r>
       <r>    6.2556    0.0000 </r>
       <r>    6.2569    0.0000 </r>
       <r>    7.0736    0.0000 </r>
       <r>    7.0837    0.0000 </r>
       <r>    7.3141    0.0000 </r>
       <r>    7.3185    0.0000 </r>
       <r>    7.7629    0.0000 </r>
       <r>    7.8025    0.0000 </r>
       <r>    7.9079    0.0000 </r>
       <r>    7.9372    0.0000 </r>
       <r>    7.9611    0.0000 </r>
       <r>    8.0130    0.0000 </r>
       <r>    8.0972    0.0000 </r>
       <r>    8.1387    0.0000 </r>
       <r>    8.3809    0.0000 </r>
       <r>    8.6143    0.0000 </r>
       <r>    8.6490    0.0000 </r>
       <r>    8.7720    0.0000 </r>
       <r>    8.7805    0.0000 </r>
       <r>    8.8038    0.0000 </r>
       <r>    8.9237    0.0000 </r>
       <r>    8.9656    0.0000 </r>
       <r>    9.0303    0.0000 </r>
       <r>    9.0318    0.0000 </r>
       <r>    9.0862    0.0000 </r>
       <r>    9.1071    0.0000 </r>
       <r>    9.1309    0.0000 </r>
       <r>    9.1517    0.0000 </r>
       <r>    9.1832    0.0000 </r>
       <r>    9.2322    0.0000 </r>
       <r>    9.4016    0.0000 </r>
       <r>    9.4906    0.0000 </r>
       <r>    9.5391    0.0000 </r>
       <r>    9.7067    0.0000 </r>
      </set>
      <set comment="kpoint 2">
       <r>  -40.2956    1.0000 </r>
       <r>  -39.8122    1.0000 </r>
       <r>  -39.7376    1.0000 </r>
       <r>  -39.6302    1.0000 </r>
       <r>  -39.6276    1.0000 </r>
       <r>  -39.5788    1.0000 </r>
       <r>  -39.5762    1.0000 </r>
       <r>  -39.4664    1.0000 </r>
       <r>  -18.9384    1.0000 </r>
       <r>  -18.9352    1.0000 </r>
       <r>  -18.8680    1.0000 </r>
       <r>  -18.8659    1.0000 </r>
       <r>  -18.8609    1.0000 </r>
       <r>  -18.8588    1.0000 </r>
       <r>  -18.7683    1.0000 </r>
       <r>  -18.7654    1.0000 </r>
       <r>  -18.7469    1.0000 </r>
       <r>  -18.7442    1.0000 </r>
       <r>  -18.7195    1.0000 </r>
       <r>  -18.7151    1.0000 </r>
       <r>  -18.7115    1.0000 </r>
       <r>  -18.7071    1.0000 </r>
       <r>  -18.6989    1.0000 </r>
       <r>  -18.6932    1.0000 </r>
       <r>  -18.6769    1.0000 </r>
       <r>  -18.6754    1.0000 </r>
       <r>  -18.6704    1.0000 </r>
       <r>  -18.6687    1.0000 </r>
       <r>  -18.6661    1.0000 </r>
       <r>  -18.6644    1.0000 </r>
       <r>  -18.6629    1.0000 </r>
       <r>  -18.6613    1.0000 </r>
       <r>  -18.6597    1.0000 </r>
       <r>  -18.6577    1.0000 </r>
       <r>  -18.6570    1.0000 </r>
       <r>  -18.6553    1.0000 </r>
       <r>  -18.6543    1.0000 </r>
       <r>  -18.6532    1.0000 </r>
       <r>  -18.6520    1.0000 </r>
       <r>  -18.6491    1.0000 </r>
       <r>  -18.6480    1.0000 </r>
       <r>  -18.6463    1.0000 </r>
       <r>  -18.6445    1.0000 </r>
       <r>  -18.6435    1.0000 </r>
       <r>  -18.6425    1.0000 </r>
       <r>  -18.6408    1.0000 </r>
       <r>  -18.6383    1.0000 </r>
       <r>  -18.6372    1.0000 </r>
       <r>  -18.5801    1.0000 </r>
       <r>  -18.5789    1.0000 </r>
       <r>  -18.5669    1.0000 </r>
       <r>  -18.5666    1.0000 </r>
       <r>  -18.5659    1.0000 </r>
       <r>  -18.5606    1.0000 </r>
       <r>  -18.5542    1.0000 </r>
       <r>  -18.5531    1.0000 </r>
       <r>  -18.5373    1.0000 </r>
       <r>  -18.5313    1.0000 </r>
       <r>  -18.5197    1.0000 </r>
       <r>  -18.5181    1.0000 </r>
       <r>  -18.5176    1.0000 </r>
       <r>  -18.5160    1.0000 </r>
       <r>  -18.5075    1.0000 </r>
       <r>  -18.5053    1.0000 </r>
       <r>  -18.5052    1.0000 </r>
       <r>  -18.5023    1.0000 </r>
       <r>  -18.5012    1.0000 </r>
       <r>  -18.4973    1.0000 </r>
       <r>  -18.4923    1.0000 </r>
       <r>  -18.4902    1.0000 </r>
       <r>  -18.4902    1.0000 </r>
       <r>  -18.4886    1.0000 </r>
       <r>  -18.4863    1.0000 </r>
       <r>  -18.4837    1.0000 </r>
       <r>  -18.4183    1.0000 </r>
       <r>  -18.4170    1.0000 </r>
       <r>  -18.4101    1.0000 </r>
       <r>  -18.4094    1.0000 </r>
       <r>  -18.4073    1.0000 </r>
       <r>  -18.4056    1.0000 </r>
       <r>  -18.3970    1.0000 </r>
       <r>  -18.3964    1.0000 </r>
       <r>  -18.3178    1.0000 </r>
       <r>  -18.3170    1.0000 </r>
       <r>  -18.2025    1.0000 </r>
       <r>  -18.2017    1.0000 </r>
       <r>  -18.1898    1.0000 </r>
       <r>  -18.1884    1.0000 </r>
       <r>  -13.5800    1.0000 </r>
       <r>  -13.4756    1.0000 </r>
       <r>  -12.9178    1.0000 </r>
       <r>  -12.8562    1.0000 </r>
       <r>  -12.8006    1.0000 </r>
       <r>  -12.7891    1.0000 </r>
       <r>  -12.7343    1.0000 </r>
       <r>  -12.7255    1.0000 </r>
       <r>  -12.7142    1.0000 </r>
       <r>  -12.6822    1.0000 </r>
       <r>  -12.6704    1.0000 </r>
       <r>  -12.6628    1.0000 </r>
       <r>  -12.5869    1.0000 </r>
       <r>  -12.5444    1.0000 </r>
       <r>  -11.9761    1.0000 </r>
       <r>  -11.9213    1.0000 </r>
       <r>   -9.1375    1.0000 </r>
       <r>   -9.1176    1.0000 </r>
       <r>   -8.8632    1.0000 </r>
       <r>   -8.8408    1.0000 </r>
       <r>   -8.3372    1.0000 </r>
       <r>   -8.3340    1.0000 </r>
       <r>   -8.3275    1.0000 </r>
       <r>   -8.3209    1.0000 </r>
       <r>   -8.1487    1.0000 </r>
       <r>   -8.1459    1.0000 </r>
       <r>   -8.1418    1.0000 </r>
       <r>   -8.1359    1.0000 </r>
       <r>   -7.7017    1.0000 </r>
       <r>   -7.7010    1.0000 </r>
       <r>   -7.5921    1.0000 </r>
       <r>   -7.5907    1.0000 </r>
       <r>   -5.9889    1.0000 </r>
       <r>   -5.9486    1.0000 </r>
       <r>   -5.9107    1.0000 </r>
       <r>   -5.9033    1.0000 </r>
       <r>   -5.8526    1.0000 </r>
       <r>   -5.7744    1.0000 </r>
       <r>   -5.7617    1.0000 </r>
       <r>   -5.7535    1.0000 </r>
       <r>   -5.6520    1.0000 </r>
       <r>   -5.6013    1.0000 </r>
       <r>   -5.5167    1.0000 </r>
       <r>   -5.5020    1.0000 </r>
       <r>   -4.4400    1.0000 </r>
       <r>   -4.4310    1.0000 </r>
       <r>   -4.2724    1.0000 </r>
       <r>   -4.2638    1.0000 </r>
       <r>   -1.1848    1.0000 </r>
       <r>   -1.1555    1.0000 </r>
       <r>   -0.8292    1.0000 </r>
       <r>   -0.8148    1.0000 </r>
       <r>   -0.5066    1.0000 </r>
       <r>   -0.3965    1.0000 </r>
       <r>   -0.0289    1.0000 </r>
       <r>    0.0047    1.0000 </r>
       <r>    0.0681    1.0000 </r>
       <r>    0.1013    1.0000 </r>
       <r>    0.1625    1.0000 </r>
       <r>    0.1669    1.0000 </r>
       <r>    0.2018    1.0000 </r>
       <r>    0.2669    1.0000 </r>
       <r>    0.3172    1.0000 </r>
       <r>    0.3306    1.0000 </r>
       <r>    0.4815    1.0000 </r>
       <r>    0.5041    1.0000 </r>
       <r>    0.5533    1.0000 </r>
       <r>    0.5765    1.0000 </r>
       <r>    0.6061    1.0000 </r>
       <r>    0.6158    1.0000 </r>
       <r>    0.6737    1.0000 </r>
       <r>    0.6999    1.0000 </r>
       <r>    0.7417    1.0000 </r>
       <r>    0.7509    1.0000 </r>
       <r>    0.7975    1.0000 </r>
       <r>    0.8325    1.0000 </r>
       <r>    0.9274    1.0000 </r>
       <r>    1.0334    1.0000 </r>
       <r>    1.0669    1.0000 </r>
       <r>    1.0990    1.0000 </r>
       <r>    1.2119    1.0000 </r>
       <r>    1.2185    1.0000 </r>
       <r>    1.2317    1.0000 </r>
       <r>    1.2414    1.0000 </r>
       <r>    1.2979    1.0000 </r>
       <r>    1.3467    1.0000 </r>
       <r>    1.3750    1.0000 </r>
       <r>    1.4351    1.0000 </r>
       <r>    1.4536    1.0000 </r>
       <r>    1.4805    1.0000 </r>
       <r>    1.5569    1.0000 </r>
       <r>    1.5632    1.0000 </r>
       <r>    1.6110    1.0000 </r>
       <r>    1.6871    1.0000 </r>
       <r>    1.7068    1.0000 </r>
       <r>    1.7293    1.0000 </r>
       <r>    1.8448    1.0000 </r>
       <r>    1.8970    1.0000 </r>
       <r>    1.9050    1.0000 </r>
       <r>    1.9451    1.0000 </r>
       <r>    1.9498    1.0000 </r>
       <r>    1.9539    1.0000 </r>
       <r>    2.0349    1.0000 </r>
       <r>    2.0362    1.0000 </r>
       <r>    2.0680    1.0000 </r>
       <r>    2.1644    1.0000 </r>
       <r>    2.2068    1.0000 </r>
       <r>    2.2676    1.0000 </r>
       <r>    2.3134    1.0000 </r>
       <r>    2.3297    1.0000 </r>
       <r>    2.4240    1.0000 </r>
       <r>    2.4884    1.0000 </r>
       <r>    2.5122    1.0000 </r>
       <r>    2.5375    1.0000 </r>
       <r>    2.5894    1.0000 </r>
       <r>    2.5907    1.0000 </r>
       <r>    2.6313    1.0000 </r>
       <r>    2.6447    1.0000 </r>
       <r>    2.6783    1.0000 </r>
       <r>    2.7083    1.0000 </r>
       <r>    2.7400    1.0000 </r>
       <r>    2.7870    1.0000 </r>
       <r>    2.8449    1.0000 </r>
       <r>    2.8774    1.0000 </r>
       <r>    2.8828    1.0000 </r>
       <r>    2.9012    1.0000 </r>
       <r>    2.9857    1.0000 </r>
       <r>    3.0037    1.0000 </r>
       <r>    3.0558    1.0000 </r>
       <r>    3.0868    1.0000 </r>
       <r>    3.1044    1.0000 </r>
       <r>    3.1500    1.0000 </r>
       <r>    3.1513    1.0000 </r>
       <r>    3.2015    1.0000 </r>
       <r>    3.2541    1.0000 </r>
       <r>    3.2550    1.0000 </r>
       <r>    3.4776    1.0000 </r>
       <r>    3.4966    1.0000 </r>
       <r>    3.5428    1.0000 </r>
       <r>    3.5475    1.0000 </r>
       <r>    3.5617    1.0000 </r>
       <r>    3.5642    1.0000 </r>
       <r>    3.6013    1.0000 </r>
       <r>    3.7636    1.0000 </r>
       <r>    5.6581    0.0000 </r>
       <r>    5.6668    0.0000 </r>
       <r>    5.6733    0.0000 </r>
       <r>    5.6785    0.0000 </r>
       <r>    5.7593    0.0000 </r>
       <r>    5.7607    0.0000 </r>
       <r>    5.7750    0.0000 </r>
       <r>    5.7766    0.0000 </r>
       <r>    7.2053    0.0000 </r>
       <r>    7.2139    0.0000 </r>
       <r>    7.2767    0.0000 </r>
       <r>    7.3048    0.0000 </r>
       <r>    7.3626    0.0000 </r>
       <r>    7.3640    0.0000 </r>
       <r>    7.4126    0.0000 </r>
       <r>    7.4435    0.0000 </r>
       <r>    7.4763    0.0000 </r>
       <r>    7.4863    0.0000 </r>
       <r>    7.5248    0.0000 </r>
       <r>    7.5415    0.0000 </r>
       <r>    7.8149    0.0000 </r>
       <r>    7.8274    0.0000 </r>
       <r>    7.8502    0.0000 </r>
       <r>    7.8508    0.0000 </r>
       <r>    7.8540    0.0000 </r>
       <r>    7.8900    0.0000 </r>
       <r>    7.9108    0.0000 </r>
       <r>    7.9203    0.0000 </r>
       <r>    7.9984    0.0000 </r>
       <r>    8.0013    0.0000 </r>
       <r>    8.0892    0.0000 </r>
       <r>    8.1038    0.0000 </r>
       <r>    8.2978    0.0000 </r>
       <r>    8.3353    0.0000 </r>
       <r>    8.4270    0.0000 </r>
       <r>    8.4645    0.0000 </r>
       <r>    8.6652    0.0000 </r>
       <r>    8.6831    0.0000 </r>
       <r>    8.7535    0.0000 </r>
       <r>    8.7602    0.0000 </r>
       <r>    8.8003    0.0000 </r>
       <r>    8.8189    0.0000 </r>
       <r>    8.9156    0.0000 </r>
       <r>    8.9171    0.0000 </r>
       <r>    9.1723    0.0000 </r>
       <r>    9.1958    0.0000 </r>
       <r>    9.3435    0.0000 </r>
       <r>    9.4534    0.0000 </r>
      </set>
      <set comment="kpoint 3">
       <r>  -40.2956    1.0000 </r>
       <r>  -39.8122    1.0000 </r>
       <r>  -39.7376    1.0000 </r>
       <r>  -39.6302    1.0000 </r>
       <r>  -39.6275    1.0000 </r>
       <r>  -39.5787    1.0000 </r>
       <r>  -39.5763    1.0000 </r>
       <r>  -39.4664    1.0000 </r>
       <r>  -18.9386    1.0000 </r>
       <r>  -18.9350    1.0000 </r>
       <r>  -18.8680    1.0000 </r>
       <r>  -18.8660    1.0000 </r>
       <r>  -18.8609    1.0000 </r>
       <r>  -18.8588    1.0000 </r>
       <r>  -18.7683    1.0000 </r>
       <r>  -18.7654    1.0000 </r>
       <r>  -18.7470    1.0000 </r>
       <r>  -18.7442    1.0000 </r>
       <r>  -18.7194    1.0000 </r>
       <r>  -18.7150    1.0000 </r>
       <r>  -18.7116    1.0000 </r>
       <r>  -18.7071    1.0000 </r>
       <r>  -18.6990    1.0000 </r>
       <r>  -18.6934    1.0000 </r>
       <r>  -18.6770    1.0000 </r>
       <r>  -18.6754    1.0000 </r>
       <r>  -18.6706    1.0000 </r>
       <r>  -18.6687    1.0000 </r>
       <r>  -18.6660    1.0000 </r>
       <r>  -18.6644    1.0000 </r>
       <r>  -18.6626    1.0000 </r>
       <r>  -18.6611    1.0000 </r>
       <r>  -18.6606    1.0000 </r>
       <r>  -18.6579    1.0000 </r>
       <r>  -18.6568    1.0000 </r>
       <r>  -18.6548    1.0000 </r>
       <r>  -18.6535    1.0000 </r>
       <r>  -18.6528    1.0000 </r>
       <r>  -18.6523    1.0000 </r>
       <r>  -18.6492    1.0000 </r>
       <r>  -18.6482    1.0000 </r>
       <r>  -18.6456    1.0000 </r>
       <r>  -18.6447    1.0000 </r>
       <r>  -18.6432    1.0000 </r>
       <r>  -18.6428    1.0000 </r>
       <r>  -18.6413    1.0000 </r>
       <r>  -18.6390    1.0000 </r>
       <r>  -18.6371    1.0000 </r>
       <r>  -18.5801    1.0000 </r>
       <r>  -18.5789    1.0000 </r>
       <r>  -18.5668    1.0000 </r>
       <r>  -18.5665    1.0000 </r>
       <r>  -18.5659    1.0000 </r>
       <r>  -18.5606    1.0000 </r>
       <r>  -18.5544    1.0000 </r>
       <r>  -18.5529    1.0000 </r>
       <r>  -18.5373    1.0000 </r>
       <r>  -18.5313    1.0000 </r>
       <r>  -18.5197    1.0000 </r>
       <r>  -18.5180    1.0000 </r>
       <r>  -18.5176    1.0000 </r>
       <r>  -18.5160    1.0000 </r>
       <r>  -18.5075    1.0000 </r>
       <r>  -18.5052    1.0000 </r>
       <r>  -18.5052    1.0000 </r>
       <r>  -18.5023    1.0000 </r>
       <r>  -18.5012    1.0000 </r>
       <r>  -18.4973    1.0000 </r>
       <r>  -18.4923    1.0000 </r>
       <r>  -18.4902    1.0000 </r>
       <r>  -18.4902    1.0000 </r>
       <r>  -18.4886    1.0000 </r>
       <r>  -18.4863    1.0000 </r>
       <r>  -18.4837    1.0000 </r>
       <r>  -18.4183    1.0000 </r>
       <r>  -18.4170    1.0000 </r>
       <r>  -18.4100    1.0000 </r>
       <r>  -18.4094    1.0000 </r>
       <r>  -18.4073    1.0000 </r>
       <r>  -18.4057    1.0000 </r>
       <r>  -18.3970    1.0000 </r>
       <r>  -18.3964    1.0000 </r>
       <r>  -18.3180    1.0000 </r>
       <r>  -18.3169    1.0000 </r>
       <r>  -18.2025    1.0000 </r>
       <r>  -18.2017    1.0000 </r>
       <r>  -18.1898    1.0000 </r>
       <r>  -18.1885    1.0000 </r>
       <r>  -13.5810    1.0000 </r>
       <r>  -13.4743    1.0000 </r>
       <r>  -12.9244    1.0000 </r>
       <r>  -12.8377    1.0000 </r>
       <r>  -12.8154    1.0000 </r>
       <r>  -12.7773    1.0000 </r>
       <r>  -12.7318    1.0000 </r>
       <r>  -12.7288    1.0000 </r>
       <r>  -12.7157    1.0000 </r>
       <r>  -12.6881    1.0000 </r>
       <r>  -12.6830    1.0000 </r>
       <r>  -12.6516    1.0000 </r>
       <r>  -12.5876    1.0000 </r>
       <r>  -12.5443    1.0000 </r>
       <r>  -11.9745    1.0000 </r>
       <r>  -11.9235    1.0000 </r>
       <r>   -9.3307    1.0000 </r>
       <r>   -9.0532    1.0000 </r>
       <r>   -8.5631    1.0000 </r>
       <r>   -8.5307    1.0000 </r>
       <r>   -8.5188    1.0000 </r>
       <r>   -8.4722    1.0000 </r>
       <r>   -8.3023    1.0000 </r>
       <r>   -8.2727    1.0000 </r>
       <r>   -8.2537    1.0000 </r>
       <r>   -8.2121    1.0000 </r>
       <r>   -8.0451    1.0000 </r>
       <r>   -8.0439    1.0000 </r>
       <r>   -8.0085    1.0000 </r>
       <r>   -8.0074    1.0000 </r>
       <r>   -7.3719    1.0000 </r>
       <r>   -7.3712    1.0000 </r>
       <r>   -6.3701    1.0000 </r>
       <r>   -6.3673    1.0000 </r>
       <r>   -6.3493    1.0000 </r>
       <r>   -6.3468    1.0000 </r>
       <r>   -5.5479    1.0000 </r>
       <r>   -5.4853    1.0000 </r>
       <r>   -5.4135    1.0000 </r>
       <r>   -5.4024    1.0000 </r>
       <r>   -5.3937    1.0000 </r>
       <r>   -5.2858    1.0000 </r>
       <r>   -5.1667    1.0000 </r>
       <r>   -5.1293    1.0000 </r>
       <r>   -5.0940    1.0000 </r>
       <r>   -5.0195    1.0000 </r>
       <r>   -3.8940    1.0000 </r>
       <r>   -3.5826    1.0000 </r>
       <r>   -1.3775    1.0000 </r>
       <r>   -1.2777    1.0000 </r>
       <r>   -1.2769    1.0000 </r>
       <r>   -1.0592    1.0000 </r>
       <r>   -0.4547    1.0000 </r>
       <r>   -0.4507    1.0000 </r>
       <r>   -0.4259    1.0000 </r>
       <r>   -0.3992    1.0000 </r>
       <r>   -0.3796    1.0000 </r>
       <r>   -0.3571    1.0000 </r>
       <r>   -0.2947    1.0000 </r>
       <r>   -0.2684    1.0000 </r>
       <r>   -0.1149    1.0000 </r>
       <r>   -0.0394    1.0000 </r>
       <r>    0.1185    1.0000 </r>
       <r>    0.2376    1.0000 </r>
       <r>    0.2463    1.0000 </r>
       <r>    0.2885    1.0000 </r>
       <r>    0.3931    1.0000 </r>
       <r>    0.4081    1.0000 </r>
       <r>    0.5090    1.0000 </r>
       <r>    0.5398    1.0000 </r>
       <r>    0.6637    1.0000 </r>
       <r>    0.7191    1.0000 </r>
       <r>    0.7283    1.0000 </r>
       <r>    0.8135    1.0000 </r>
       <r>    0.8155    1.0000 </r>
       <r>    0.9354    1.0000 </r>
       <r>    0.9474    1.0000 </r>
       <r>    1.0646    1.0000 </r>
       <r>    1.0734    1.0000 </r>
       <r>    1.1080    1.0000 </r>
       <r>    1.2223    1.0000 </r>
       <r>    1.2307    1.0000 </r>
       <r>    1.4263    1.0000 </r>
       <r>    1.4535    1.0000 </r>
       <r>    1.4636    1.0000 </r>
       <r>    1.5456    1.0000 </r>
       <r>    1.6021    1.0000 </r>
       <r>    1.6323    1.0000 </r>
       <r>    1.6522    1.0000 </r>
       <r>    1.6870    1.0000 </r>
       <r>    1.7097    1.0000 </r>
       <r>    1.7826    1.0000 </r>
       <r>    1.8052    1.0000 </r>
       <r>    1.8548    1.0000 </r>
       <r>    1.8701    1.0000 </r>
       <r>    1.9282    1.0000 </r>
       <r>    1.9501    1.0000 </r>
       <r>    2.0022    1.0000 </r>
       <r>    2.0280    1.0000 </r>
       <r>    2.1296    1.0000 </r>
       <r>    2.1347    1.0000 </r>
       <r>    2.2009    1.0000 </r>
       <r>    2.2275    1.0000 </r>
       <r>    2.2833    1.0000 </r>
       <r>    2.4327    1.0000 </r>
       <r>    2.4628    1.0000 </r>
       <r>    2.5017    1.0000 </r>
       <r>    2.5174    1.0000 </r>
       <r>    2.5396    1.0000 </r>
       <r>    2.5563    1.0000 </r>
       <r>    2.5630    1.0000 </r>
       <r>    2.5790    1.0000 </r>
       <r>    2.5814    1.0000 </r>
       <r>    2.5945    1.0000 </r>
       <r>    2.6908    1.0000 </r>
       <r>    2.7163    1.0000 </r>
       <r>    2.7211    1.0000 </r>
       <r>    2.7842    1.0000 </r>
       <r>    2.7850    1.0000 </r>
       <r>    2.8329    1.0000 </r>
       <r>    2.8382    1.0000 </r>
       <r>    2.8953    1.0000 </r>
       <r>    2.9351    1.0000 </r>
       <r>    2.9394    1.0000 </r>
       <r>    2.9505    1.0000 </r>
       <r>    2.9696    1.0000 </r>
       <r>    3.0038    1.0000 </r>
       <r>    3.0052    1.0000 </r>
       <r>    3.0412    1.0000 </r>
       <r>    3.0516    1.0000 </r>
       <r>    3.1291    1.0000 </r>
       <r>    3.2736    1.0000 </r>
       <r>    3.3249    1.0000 </r>
       <r>    3.3658    1.0000 </r>
       <r>    3.3919    1.0000 </r>
       <r>    3.4299    1.0000 </r>
       <r>    3.4471    1.0000 </r>
       <r>    3.4523    1.0000 </r>
       <r>    3.4865    1.0000 </r>
       <r>    3.5695    1.0000 </r>
       <r>    4.2228    1.0000 </r>
       <r>    4.2252    1.0000 </r>
       <r>    4.2665    1.0000 </r>
       <r>    4.2688    1.0000 </r>
       <r>    5.1088    0.0000 </r>
       <r>    5.1117    0.0000 </r>
       <r>    5.2180    0.0000 </r>
       <r>    5.2186    0.0000 </r>
       <r>    5.7411    0.0000 </r>
       <r>    5.7442    0.0000 </r>
       <r>    5.8170    0.0000 </r>
       <r>    5.8208    0.0000 </r>
       <r>    6.1405    0.0000 </r>
       <r>    6.1601    0.0000 </r>
       <r>    6.1729    0.0000 </r>
       <r>    6.1816    0.0000 </r>
       <r>    6.2309    0.0000 </r>
       <r>    6.2443    0.0000 </r>
       <r>    6.2705    0.0000 </r>
       <r>    6.2716    0.0000 </r>
       <r>    6.7436    0.0000 </r>
       <r>    6.7839    0.0000 </r>
       <r>    7.0064    0.0000 </r>
       <r>    7.0721    0.0000 </r>
       <r>    7.1379    0.0000 </r>
       <r>    7.3379    0.0000 </r>
       <r>    7.4494    0.0000 </r>
       <r>    7.4519    0.0000 </r>
       <r>    7.7493    0.0000 </r>
       <r>    7.8335    0.0000 </r>
       <r>    7.9186    0.0000 </r>
       <r>    7.9879    0.0000 </r>
       <r>    7.9918    0.0000 </r>
       <r>    8.2955    0.0000 </r>
       <r>    8.3213    0.0000 </r>
       <r>    8.4392    0.0000 </r>
       <r>    8.6487    0.0000 </r>
       <r>    8.7546    0.0000 </r>
       <r>    8.9258    0.0000 </r>
       <r>    8.9967    0.0000 </r>
       <r>    8.9983    0.0000 </r>
       <r>    9.0492    0.0000 </r>
       <r>    9.0564    0.0000 </r>
       <r>    9.0757    0.0000 </r>
       <r>    9.0884    0.0000 </r>
       <r>    9.1300    0.0000 </r>
       <r>    9.1306    0.0000 </r>
       <r>    9.1835    0.0000 </r>
       <r>    9.4573    0.0000 </r>
       <r>    9.4741    0.0000 </r>
       <r>    9.6815    0.0000 </r>
       <r>    9.8019    0.0000 </r>
      </set>
      <set comment="kpoint 4">
       <r>  -40.2956    1.0000 </r>
       <r>  -39.8121    1.0000 </r>
       <r>  -39.7376    1.0000 </r>
       <r>  -39.6302    1.0000 </r>
       <r>  -39.6275    1.0000 </r>
       <r>  -39.5788    1.0000 </r>
       <r>  -39.5762    1.0000 </r>
       <r>  -39.4664    1.0000 </r>
       <r>  -18.9386    1.0000 </r>
       <r>  -18.9350    1.0000 </r>
       <r>  -18.8680    1.0000 </r>
       <r>  -18.8659    1.0000 </r>
       <r>  -18.8609    1.0000 </r>
       <r>  -18.8588    1.0000 </r>
       <r>  -18.7683    1.0000 </r>
       <r>  -18.7654    1.0000 </r>
       <r>  -18.7470    1.0000 </r>
       <r>  -18.7442    1.0000 </r>
       <r>  -18.7195    1.0000 </r>
       <r>  -18.7151    1.0000 </r>
       <r>  -18.7115    1.0000 </r>
       <r>  -18.7071    1.0000 </r>
       <r>  -18.6989    1.0000 </r>
       <r>  -18.6932    1.0000 </r>
       <r>  -18.6769    1.0000 </r>
       <r>  -18.6754    1.0000 </r>
       <r>  -18.6705    1.0000 </r>
       <r>  -18.6687    1.0000 </r>
       <r>  -18.6661    1.0000 </r>
       <r>  -18.6644    1.0000 </r>
       <r>  -18.6629    1.0000 </r>
       <r>  -18.6613    1.0000 </r>
       <r>  -18.6597    1.0000 </r>
       <r>  -18.6577    1.0000 </r>
       <r>  -18.6570    1.0000 </r>
       <r>  -18.6553    1.0000 </r>
       <r>  -18.6543    1.0000 </r>
       <r>  -18.6531    1.0000 </r>
       <r>  -18.6520    1.0000 </r>
       <r>  -18.6491    1.0000 </r>
       <r>  -18.6480    1.0000 </r>
       <r>  -18.6463    1.0000 </r>
       <r>  -18.6445    1.0000 </r>
       <r>  -18.6435    1.0000 </r>
       <r>  -18.6426    1.0000 </r>
       <r>  -18.6408    1.0000 </r>
       <r>  -18.6382    1.0000 </r>
       <r>  -18.6371    1.0000 </r>
       <r>  -18.5800    1.0000 </r>
       <r>  -18.5789    1.0000 </r>
       <r>  -18.5669    1.0000 </r>
       <r>  -18.5665    1.0000 </r>
       <r>  -18.5659    1.0000 </r>
       <r>  -18.5606    1.0000 </r>
       <r>  -18.5544    1.0000 </r>
       <r>  -18.5529    1.0000 </r>
       <r>  -18.5373    1.0000 </r>
       <r>  -18.5313    1.0000 </r>
       <r>  -18.5197    1.0000 </r>
       <r>  -18.5180    1.0000 </r>
       <r>  -18.5176    1.0000 </r>
       <r>  -18.5160    1.0000 </r>
       <r>  -18.5075    1.0000 </r>
       <r>  -18.5053    1.0000 </r>
       <r>  -18.5052    1.0000 </r>
       <r>  -18.5023    1.0000 </r>
       <r>  -18.5012    1.0000 </r>
       <r>  -18.4973    1.0000 </r>
       <r>  -18.4923    1.0000 </r>
       <r>  -18.4902    1.0000 </r>
       <r>  -18.4902    1.0000 </r>
       <r>  -18.4886    1.0000 </r>
       <r>  -18.4863    1.0000 </r>
       <r>  -18.4837    1.0000 </r>
       <r>  -18.4183    1.0000 </r>
       <r>  -18.4170    1.0000 </r>
       <r>  -18.4101    1.0000 </r>
       <r>  -18.4094    1.0000 </r>
       <r>  -18.4073    1.0000 </r>
[...]
       <r>    8.8354    0.0000 </r>
       <r>    8.8618    0.0000 </r>
       <r>    8.8825    0.0000 </r>
       <r>    8.8871    0.0000 </r>
       <r>    8.8978    0.0000 </r>
       <r>    8.9251    0.0000 </r>
       <r>    8.9325    0.0000 </r>
      </set>
     </set>
    </set>
   </array>
  </eigenvalues>
  <separator name="orbital magnetization" >
   <v name="MAGDIPOLOUT">      0.00000000      0.00000000      0.00000000</v>
  </separator>
  <dos>
   <i name="efermi">      4.27028700 </i>
   <total>
    <array>
     <dimension dim="1">gridpoints</dimension>
     <dimension dim="2">spin</dimension>
     <field>energy</field>
     <field>total</field>
     <field>integrated</field>
     <set>
      <set comment="spin 1">
       <r>   -42.8005     0.0000     0.0000 </r>
       <r>   -42.6168     0.0000     0.0000 </r>
       <r>   -42.4331     0.0000     0.0000 </r>
       <r>   -42.2494     0.0000     0.0000 </r>
       <r>   -42.0657     0.0000     0.0000 </r>
       <r>   -41.8820     0.0000     0.0000 </r>
       <r>   -41.6983     0.0000     0.0000 </r>
       <r>   -41.5146     0.0000     0.0000 </r>
       <r>   -41.3310     0.0000     0.0000 </r>
       <r>   -41.1473     0.0000     0.0000 </r>
       <r>   -40.9636     0.0000     0.0000 </r>
       <r>   -40.7799     0.0000     0.0000 </r>
       <r>   -40.5962     0.0000     0.0000 </r>
       <r>   -40.4125     0.0000     0.0000 </r>
       <r>   -40.2288     0.0000     2.0000 </r>
       <r>   -40.0451     0.0000     2.0000 </r>
       <r>   -39.8614     0.0000     2.0000 </r>
       <r>   -39.6777     0.0000     6.0000 </r>
       <r>   -39.4940     0.0000    14.0000 </r>
       <r>   -39.3104     0.0000    16.0000 </r>
       <r>   -39.1267     0.0000    16.0000 </r>
       <r>   -38.9430     0.0000    16.0000 </r>
       <r>   -38.7593     0.0000    16.0000 </r>
       <r>   -38.5756     0.0000    16.0000 </r>
       <r>   -38.3919     0.0000    16.0000 </r>
       <r>   -38.2082     0.0000    16.0000 </r>
       <r>   -38.0245     0.0000    16.0000 </r>
       <r>   -37.8408     0.0000    16.0000 </r>
       <r>   -37.6571     0.0000    16.0000 </r>
       <r>   -37.4734     0.0000    16.0000 </r>
       <r>   -37.2898     0.0000    16.0000 </r>
       <r>   -37.1061     0.0000    16.0000 </r>
       <r>   -36.9224     0.0000    16.0000 </r>
       <r>   -36.7387     0.0000    16.0000 </r>
       <r>   -36.5550     0.0000    16.0000 </r>
       <r>   -36.3713     0.0000    16.0000 </r>
       <r>   -36.1876     0.0000    16.0000 </r>
       <r>   -36.0039     0.0000    16.0000 </r>
       <r>   -35.8202     0.0000    16.0000 </r>
       <r>   -35.6365     0.0000    16.0000 </r>
       <r>   -35.4528     0.0000    16.0000 </r>
       <r>   -35.2692     0.0000    16.0000 </r>
       <r>   -35.0855     0.0000    16.0000 </r>
       <r>   -34.9018     0.0000    16.0000 </r>
       <r>   -34.7181     0.0000    16.0000 </r>
       <r>   -34.5344     0.0000    16.0000 </r>
       <r>   -34.3507     0.0000    16.0000 </r>
       <r>   -34.1670     0.0000    16.0000 </r>
       <r>   -33.9833     0.0000    16.0000 </r>
       <r>   -33.7996     0.0000    16.0000 </r>
       <r>   -33.6159     0.0000    16.0000 </r>
       <r>   -33.4322     0.0000    16.0000 </r>
       <r>   -33.2486     0.0000    16.0000 </r>
       <r>   -33.0649     0.0000    16.0000 </r>
       <r>   -32.8812     0.0000    16.0000 </r>
       <r>   -32.6975     0.0000    16.0000 </r>
       <r>   -32.5138     0.0000    16.0000 </r>
       <r>   -32.3301     0.0000    16.0000 </r>
       <r>   -32.1464     0.0000    16.0000 </r>
       <r>   -31.9627     0.0000    16.0000 </r>
       <r>   -31.7790     0.0000    16.0000 </r>
       <r>   -31.5953     0.0000    16.0000 </r>
       <r>   -31.4117     0.0000    16.0000 </r>
       <r>   -31.2280     0.0000    16.0000 </r>
       <r>   -31.0443     0.0000    16.0000 </r>
       <r>   -30.8606     0.0000    16.0000 </r>
       <r>   -30.6769     0.0000    16.0000 </r>
       <r>   -30.4932     0.0000    16.0000 </r>
       <r>   -30.3095     0.0000    16.0000 </r>
       <r>   -30.1258     0.0000    16.0000 </r>
       <r>   -29.9421     0.0000    16.0000 </r>
       <r>   -29.7584     0.0000    16.0000 </r>
       <r>   -29.5747     0.0000    16.0000 </r>
       <r>   -29.3911     0.0000    16.0000 </r>
       <r>   -29.2074     0.0000    16.0000 </r>
       <r>   -29.0237     0.0000    16.0000 </r>
       <r>   -28.8400     0.0000    16.0000 </r>
       <r>   -28.6563     0.0000    16.0000 </r>
       <r>   -28.4726     0.0000    16.0000 </r>
       <r>   -28.2889     0.0000    16.0000 </r>
       <r>   -28.1052     0.0000    16.0000 </r>
       <r>   -27.9215     0.0000    16.0000 </r>
       <r>   -27.7378     0.0000    16.0000 </r>
       <r>   -27.5541     0.0000    16.0000 </r>
       <r>   -27.3705     0.0000    16.0000 </r>
       <r>   -27.1868     0.0000    16.0000 </r>
       <r>   -27.0031     0.0000    16.0000 </r>
       <r>   -26.8194     0.0000    16.0000 </r>
       <r>   -26.6357     0.0000    16.0000 </r>
       <r>   -26.4520     0.0000    16.0000 </r>
       <r>   -26.2683     0.0000    16.0000 </r>
       <r>   -26.0846     0.0000    16.0000 </r>
       <r>   -25.9009     0.0000    16.0000 </r>
       <r>   -25.7172     0.0000    16.0000 </r>
       <r>   -25.5335     0.0000    16.0000 </r>
       <r>   -25.3499     0.0000    16.0000 </r>
       <r>   -25.1662     0.0000    16.0000 </r>
       <r>   -24.9825     0.0000    16.0000 </r>
       <r>   -24.7988     0.0000    16.0000 </r>
       <r>   -24.6151     0.0000    16.0000 </r>
       <r>   -24.4314     0.0000    16.0000 </r>
       <r>   -24.2477     0.0000    16.0000 </r>
       <r>   -24.0640     0.0000    16.0000 </r>
       <r>   -23.8803     0.0000    16.0000 </r>
       <r>   -23.6966     0.0000    16.0000 </r>
       <r>   -23.5129     0.0000    16.0000 </r>
       <r>   -23.3293     0.0000    16.0000 </r>
       <r>   -23.1456     0.0000    16.0000 </r>
       <r>   -22.9619     0.0000    16.0000 </r>
       <r>   -22.7782     0.0000    16.0000 </r>
       <r>   -22.5945     0.0000    16.0000 </r>
       <r>   -22.4108     0.0000    16.0000 </r>
       <r>   -22.2271     0.0000    16.0000 </r>
       <r>   -22.0434     0.0000    16.0000 </r>
       <r>   -21.8597     0.0000    16.0000 </r>
       <r>   -21.6760     0.0000    16.0000 </r>
       <r>   -21.4923     0.0000    16.0000 </r>
       <r>   -21.3087     0.0000    16.0000 </r>
       <r>   -21.1250     0.0000    16.0000 </r>
       <r>   -20.9413     0.0000    16.0000 </r>
       <r>   -20.7576     0.0000    16.0000 </r>
       <r>   -20.5739     0.0000    16.0000 </r>
       <r>   -20.3902     0.0000    16.0000 </r>
       <r>   -20.2065     0.0000    16.0000 </r>
       <r>   -20.0228     0.0000    16.0000 </r>
       <r>   -19.8391     0.0000    16.0000 </r>
       <r>   -19.6554     0.0000    16.0000 </r>
       <r>   -19.4717     0.0000    16.0000 </r>
       <r>   -19.2881     0.0000    16.0000 </r>
       <r>   -19.1044     0.0000    16.0000 </r>
       <r>   -18.9207     0.0000    20.0000 </r>
       <r>   -18.7370     0.0000    36.0000 </r>
       <r>   -18.5533     0.0000   110.0000 </r>
       <r>   -18.3696     0.0000   164.0000 </r>
       <r>   -18.1859     0.0000   176.0000 </r>
       <r>   -18.0022     0.0000   176.0000 </r>
       <r>   -17.8185     0.0000   176.0000 </r>
       <r>   -17.6348     0.0000   176.0000 </r>
       <r>   -17.4512     0.0000   176.0000 </r>
       <r>   -17.2675     0.0000   176.0000 </r>
       <r>   -17.0838     0.0000   176.0000 </r>
       <r>   -16.9001     0.0000   176.0000 </r>
       <r>   -16.7164     0.0000   176.0000 </r>
       <r>   -16.5327     0.0000   176.0000 </r>
       <r>   -16.3490     0.0000   176.0000 </r>
       <r>   -16.1653     0.0000   176.0000 </r>
       <r>   -15.9816     0.0000   176.0000 </r>
       <r>   -15.7979     0.0000   176.0000 </r>
       <r>   -15.6142     0.0000   176.0000 </r>
       <r>   -15.4306     0.0000   176.0000 </r>
       <r>   -15.2469     0.0000   176.0000 </r>
       <r>   -15.0632     0.0000   176.0000 </r>
       <r>   -14.8795     0.0000   176.0000 </r>
       <r>   -14.6958     0.0000   176.0000 </r>
       <r>   -14.5121     0.0000   176.0000 </r>
       <r>   -14.3284     0.0000   176.0000 </r>
       <r>   -14.1447     0.0000   176.0000 </r>
       <r>   -13.9610     0.0000   176.0000 </r>
       <r>   -13.7773     0.0000   176.0000 </r>
       <r>   -13.5936     0.0000   176.0000 </r>
       <r>   -13.4100     0.0000   180.0000 </r>
       <r>   -13.2263     0.0000   180.0000 </r>
       <r>   -13.0426     0.0000   180.0000 </r>
       <r>   -12.8589     0.0000   182.0000 </r>
       <r>   -12.6752   239.5293   196.8651 </r>
       <r>   -12.4915     0.0000   204.0000 </r>
       <r>   -12.3078     0.0000   204.0000 </r>
       <r>   -12.1241     0.0000   204.0000 </r>
       <r>   -11.9404     0.0000   206.0000 </r>
       <r>   -11.7567     0.0000   208.0000 </r>
       <r>   -11.5730     0.0000   208.0000 </r>
       <r>   -11.3894     0.0000   208.0000 </r>
       <r>   -11.2057     0.0000   208.0000 </r>
       <r>   -11.0220     0.0000   208.0000 </r>
       <r>   -10.8383     0.0000   208.0000 </r>
       <r>   -10.6546     0.0000   208.0000 </r>
       <r>   -10.4709     0.0000   208.0000 </r>
       <r>   -10.2872     0.0000   208.0000 </r>
       <r>   -10.1035     0.0000   208.0000 </r>
       <r>    -9.9198     0.0000   208.0000 </r>
       <r>    -9.7361     0.0000   208.0000 </r>
       <r>    -9.5524     0.0000   208.0000 </r>
       <r>    -9.3688     0.0000   208.0000 </r>
       <r>    -9.1851    10.5371   208.8585 </r>
       <r>    -9.0014    12.0689   211.7734 </r>
       <r>    -8.8177    22.4641   213.1754 </r>
       <r>    -8.6340    12.5270   215.9538 </r>
       <r>    -8.4503    29.2051   219.1370 </r>
       <r>    -8.2666     0.2301   224.0006 </r>
       <r>    -8.0829    33.7298   226.9497 </r>
       <r>    -7.8992    19.3656   231.7236 </r>
       <r>    -7.7155    24.2710   235.0147 </r>
       <r>    -7.5318    18.2465   238.5173 </r>
       <r>    -7.3482     0.0000   240.0000 </r>
       <r>    -7.1645     0.0000   240.0000 </r>
       <r>    -6.9808     0.0000   240.0000 </r>
       <r>    -6.7971     0.0000   240.0000 </r>
       <r>    -6.6134     0.0000   240.0000 </r>
       <r>    -6.4297     0.0000   240.0000 </r>
       <r>    -6.2460    11.8921   240.7200 </r>
       <r>    -6.0623    29.0797   244.5321 </r>
       <r>    -5.8786    15.8804   248.4147 </r>
       <r>    -5.6949    24.4168   252.9360 </r>
       <r>    -5.5112    20.9226   256.9964 </r>
       <r>    -5.3276    18.5915   260.8569 </r>
       <r>    -5.1439     8.1085   263.4468 </r>
       <r>    -4.9602     5.1519   264.3297 </r>
       <r>    -4.7765     7.7077   265.6484 </r>
       <r>    -4.5928    10.2076   267.2616 </r>
       <r>    -4.4091     6.2579   268.8861 </r>
       <r>    -4.2254     7.3918   270.0973 </r>
       <r>    -4.0417     4.7346   271.2464 </r>
       <r>    -3.8580     1.6158   271.8211 </r>
       <r>    -3.6743     0.3174   271.9903 </r>
       <r>    -3.4906     0.0000   272.0000 </r>
       <r>    -3.3070     0.0000   272.0000 </r>
       <r>    -3.1233     0.0000   272.0000 </r>
       <r>    -2.9396     0.0000   272.0000 </r>
       <r>    -2.7559     0.0000   272.0000 </r>
       <r>    -2.5722     0.0000   272.0000 </r>
       <r>    -2.3885     0.0000   272.0000 </r>
       <r>    -2.2048     0.0000   272.0000 </r>
       <r>    -2.0211     0.0000   272.0000 </r>
       <r>    -1.8374     0.0000   272.0000 </r>
       <r>    -1.6537     0.0000   272.0000 </r>
       <r>    -1.4701     0.0508   272.0003 </r>
       <r>    -1.2864     4.4021   272.3126 </r>
       <r>    -1.1027    11.4227   273.9130 </r>
       <r>    -0.9190    13.3457   276.0971 </r>
       <r>    -0.7353     8.4898   278.1863 </r>
       <r>    -0.5516     4.5503   279.3241 </r>
       <r>    -0.3679    21.2012   281.9230 </r>
       <r>    -0.1842    27.9295   286.2060 </r>
       <r>    -0.0005    35.3243   292.6264 </r>
       <r>     0.1832    30.6536   298.8136 </r>
       <r>     0.3669    41.2166   305.4777 </r>
       <r>     0.5505    47.5178   312.9957 </r>
       <r>     0.7342    32.0000   320.3080 </r>
       <r>     0.9179    34.4266   326.5193 </r>
       <r>     1.1016    62.6492   334.7571 </r>
       <r>     1.2853    31.3905   342.5449 </r>
       <r>     1.4690    44.9273   350.8321 </r>
       <r>     1.6527    40.7480   360.3651 </r>
       <r>     1.8364    57.6739   369.2315 </r>
       <r>     2.0201    37.0825   377.4646 </r>
       <r>     2.2038    37.2377   385.8740 </r>
       <r>     2.3875    50.3896   393.5331 </r>
       <r>     2.5711    61.4615   404.1189 </r>
       <r>     2.7548    68.7256   415.1985 </r>
       <r>     2.9385    79.4565   427.7818 </r>
       <r>     3.1222    52.5661   440.1667 </r>
       <r>     3.3059    35.2348   447.7369 </r>
       <r>     3.4896    42.7096   454.5746 </r>
       <r>     3.6733    16.9058   459.2217 </r>
       <r>     3.8570    11.0096   461.9683 </r>
       <r>     4.0407     5.5061   463.4854 </r>
       <r>     4.2244     0.3149   463.9954 </r>
       <r>     4.4081     0.0000   464.0000 </r>
       <r>     4.5917     0.0000   464.0000 </r>
       <r>     4.7754     0.0000   464.0000 </r>
       <r>     4.9591     0.0000   464.0000 </r>
       <r>     5.1428     0.7371   464.0286 </r>
       <r>     5.3265     4.2374   464.4519 </r>
       <r>     5.5102     8.2536   465.5991 </r>
       <r>     5.6939     9.1931   467.3155 </r>
       <r>     5.8776    19.8440   471.1908 </r>
       <r>     6.0613    12.5615   473.8217 </r>
       <r>     6.2450    11.6422   475.9896 </r>
       <r>     6.4287    13.3337   478.2766 </r>
       <r>     6.6123    15.0938   480.8878 </r>
       <r>     6.7960    16.8296   483.8196 </r>
       <r>     6.9797    19.6973   487.1452 </r>
       <r>     7.1634    26.9389   491.3321 </r>
       <r>     7.3471    36.3327   497.2965 </r>
       <r>     7.5308    29.8491   504.6709 </r>
       <r>     7.7145    38.2627   509.8227 </r>
       <r>     7.8982    50.3655   518.6127 </r>
       <r>     8.0819    25.9158   525.8614 </r>
       <r>     8.2656    18.9387   529.8342 </r>
       <r>     8.4493    20.0439   533.2985 </r>
       <r>     8.6329    25.5180   537.5110 </r>
       <r>     8.8166    46.1502   543.0417 </r>
       <r>     9.0003    32.2180   550.9280 </r>
       <r>     9.1840    15.5798   555.0395 </r>
       <r>     9.3677    11.4363   557.4786 </r>
       <r>     9.5514     7.0908   559.2367 </r>
       <r>     9.7351     1.0694   559.9762 </r>
       <r>     9.9188     0.0000   560.0000 </r>
       <r>    10.1025     0.0000   560.0000 </r>
       <r>    10.2862     0.0000   560.0000 </r>
       <r>    10.4699     0.0000   560.0000 </r>
       <r>    10.6535     0.0000   560.0000 </r>
       <r>    10.8372     0.0000   560.0000 </r>
       <r>    11.0209     0.0000   560.0000 </r>
       <r>    11.2046     0.0000   560.0000 </r>
       <r>    11.3883     0.0000   560.0000 </r>
       <r>    11.5720     0.0000   560.0000 </r>
       <r>    11.7557     0.0000   560.0000 </r>
       <r>    11.9394     0.0000   560.0000 </r>
       <r>    12.1231     0.0000   560.0000 </r>
       <r>    12.3068     0.0000   560.0000 </r>
      </set>
     </set>
    </array>
   </total>
  </dos>
 </calculation>
 <structure name="finalpos" >
  <crystal>
   <varray name="basis" >
    <v>      11.17850000       0.00000000       0.00000000 </v>
    <v>       0.00000000       9.57460000       0.00000000 </v>
    <v>       0.00000000       0.00000000      11.18240000 </v>
   </varray>
   <i name="volume">   1196.84853820 </i>
   <varray name="rec_basis" >
    <v>       0.08945744       0.00000000       0.00000000 </v>
    <v>       0.00000000       0.10444301       0.00000000 </v>
    <v>       0.00000000       0.00000000       0.08942624 </v>
   </varray>
  </crystal>
  <varray name="positions" >
   <v>       0.37539000       0.00017000       0.43687000 </v>
   <v>       0.12461000       0.99984000       0.18687000 </v>
   <v>       0.37461000       0.00017000       0.18687000 </v>
   <v>       0.62539000       0.99984000       0.43687000 </v>
   <v>       0.87539000       0.00017000       0.43687000 </v>
   <v>       0.62461000       0.99984000       0.18687000 </v>
   <v>       0.87461000       0.00017000       0.18687000 </v>
   <v>       0.12461000       0.99984000       0.68687000 </v>
   <v>       0.12539000       0.99984000       0.93687000 </v>
   <v>       0.37461000       0.00017000       0.68687000 </v>
   <v>       0.62539000       0.99984000       0.93687000 </v>
   <v>       0.87461000       0.00017000       0.68687000 </v>
   <v>       0.00013000       0.29519000       0.06281000 </v>
   <v>       0.25013000       0.70481000       0.06281000 </v>
   <v>       0.24987000       0.29519000       0.31282000 </v>
   <v>       0.49987000       0.70481000       0.31282000 </v>
   <v>       0.50013000       0.29519000       0.06281000 </v>
   <v>       0.75013000       0.70481000       0.06281000 </v>
   <v>       0.74987000       0.29519000       0.31282000 </v>
   <v>       0.99987000       0.70481000       0.31282000 </v>
   <v>       0.00013000       0.29519000       0.56281000 </v>
   <v>       0.25013000       0.70481000       0.56281000 </v>
   <v>       0.24987000       0.29519000       0.81282000 </v>
   <v>       0.49987000       0.70481000       0.81282000 </v>
   <v>       0.50013000       0.29519000       0.56281000 </v>
   <v>       0.75013000       0.70481000       0.56281000 </v>
   <v>       0.74987000       0.29519000       0.81282000 </v>
   <v>       0.99987000       0.70481000       0.81282000 </v>
   <v>       0.25005000       0.32677000       0.06286000 </v>
   <v>       0.00005000       0.67323000       0.06286000 </v>
   <v>       0.49995000       0.32677000       0.31286000 </v>
   <v>       0.24995000       0.67323000       0.31286000 </v>
   <v>       0.75005000       0.32677000       0.06286000 </v>
   <v>       0.50005000       0.67323000       0.06286000 </v>
   <v>       0.99995000       0.32677000       0.31286000 </v>
   <v>       0.74995000       0.67323000       0.31286000 </v>
   <v>       0.25005000       0.32677000       0.56286000 </v>
   <v>       0.00005000       0.67323000       0.56286000 </v>
   <v>       0.49995000       0.32677000       0.81286000 </v>
   <v>       0.24995000       0.67323000       0.81286000 </v>
   <v>       0.75005000       0.32677000       0.56286000 </v>
   <v>       0.50005000       0.67323000       0.56286000 </v>
   <v>       0.99995000       0.32677000       0.81286000 </v>
   <v>       0.74995000       0.67323000       0.81286000 </v>
   <v>       0.49987000       0.07798000       0.06246000 </v>
   <v>       0.24987000       0.92202000       0.06246000 </v>
   <v>       0.25013000       0.07798000       0.31246000 </v>
   <v>       0.00013000       0.92202000       0.31246000 </v>
   <v>       0.99987000       0.07798000       0.06246000 </v>
   <v>       0.74987000       0.92202000       0.06246000 </v>
   <v>       0.75013000       0.07798000       0.31246000 </v>
   <v>       0.50013000       0.92202000       0.31246000 </v>
   <v>       0.49987000       0.07798000       0.56246000 </v>
   <v>       0.24987000       0.92202000       0.56246000 </v>
   <v>       0.25013000       0.07798000       0.81246000 </v>
   <v>       0.00013000       0.92202000       0.81246000 </v>
   <v>       0.99987000       0.07798000       0.56246000 </v>
   <v>       0.74987000       0.92202000       0.56246000 </v>
   <v>       0.75013000       0.07798000       0.81246000 </v>
   <v>       0.50013000       0.92202000       0.81246000 </v>
  </varray>
 </structure>
</modeling>
