<?xml version="1.0" encoding="ISO-8859-1"?>
<modeling>
 <generator>
  <i name="program" type="string">vasp </i>
  <i name="version" type="string">5.4.4.18Apr17-6-g9f103f2a35  </i>
  <i name="subversion" type="string">(build Jul 31 2017 11:33:29) complex            parallel </i>
  <i name="platform" type="string">LinuxIFC </i>
  <i name="date" type="string">2021 09 29 </i>
  <i name="time" type="string">15:38:25 </i>
 </generator>
 <incar>
  <i type="string" name="SYSTEM"> La2O2S</i>
  <i type="string" name="PREC">normal</i>
  <i type="int" name="NELMIN">     4</i>
  <i type="int" name="IBRION">     2</i>
  <i type="int" name="NFREE">    10</i>
  <i name="EDIFF">      0.00000100</i>
  <i name="EDIFFG">     -0.01000000</i>
  <i type="int" name="NSW">     1</i>
  <i type="int" name="ISIF">     2</i>
  <i name="ENCUT">    600.00000000</i>
  <i name="ENAUG">    900.00000000</i>
  <i type="int" name="ISMEAR">    -5</i>
  <i type="logical" name="LWAVE"> F  </i>
  <i type="logical" name="LCHARG"> F  </i>
  <v type="int" name="KPOINT_BSE">    -1     0     0     0</v>
 </incar>
 <structure name="primitive_cell" >
  <crystal>
   <varray name="basis" >
    <v>      11.17850000       0.00000000       0.00000000 </v>
    <v>       0.00000000       9.57460000       0.00000000 </v>
    <v>       0.00000000       0.00000000      11.18240000 </v>
   </varray>
   <i name="volume">   1196.84853820 </i>
   <varray name="rec_basis" >
    <v>       0.08945744       0.00000000       0.00000000 </v>
    <v>       0.00000000       0.10444301       0.00000000 </v>
    <v>       0.00000000       0.00000000       0.08942624 </v>
   </varray>
  </crystal>
  <varray name="positions" >
   <v>       0.37539000       0.00017000       0.43687000 </v>
   <v>      -0.49987000      -0.07798000       0.31246000 </v>
   <v>       0.25013000       0.07798000       0.31246000 </v>
   <v>       0.49987000       0.07798000      -0.43754000 </v>
   <v>       0.24987000      -0.07798000      -0.43754000 </v>
   <v>      -0.37461000      -0.00016000       0.43687000 </v>
   <v>       0.37461000       0.00017000      -0.31313000 </v>
   <v>       0.49987000      -0.29519000       0.31282000 </v>
   <v>       0.24987000       0.29519000       0.31282000 </v>
   <v>      -0.49987000       0.29519000      -0.43719000 </v>
   <v>       0.25013000      -0.29519000      -0.43719000 </v>
   <v>       0.49995000       0.32677000       0.31286000 </v>
   <v>       0.24995000      -0.32677000       0.31286000 </v>
   <v>      -0.49995000      -0.32677000      -0.43714000 </v>
   <v>       0.25005000       0.32677000      -0.43714000 </v>
   <v>      -0.37539000      -0.00016000      -0.31313000 </v>
   <v>      -0.37539000      -0.00016000       0.18687000 </v>
   <v>       0.12461000      -0.00016000       0.18687000 </v>
   <v>       0.12461000      -0.00016000      -0.31313000 </v>
   <v>       0.49987000       0.07798000       0.06246000 </v>
   <v>      -0.24987000       0.07798000       0.31246000 </v>
   <v>      -0.25013000      -0.07798000      -0.43754000 </v>
   <v>       0.24987000      -0.07798000       0.06246000 </v>
   <v>       0.00013000      -0.07798000       0.31246000 </v>
   <v>      -0.49987000      -0.07798000      -0.18754000 </v>
   <v>      -0.00013000       0.07798000      -0.43754000 </v>
   <v>       0.25013000       0.07798000      -0.18754000 </v>
   <v>      -0.49987000       0.29519000       0.06281000 </v>
   <v>      -0.25013000       0.29519000       0.31282000 </v>
   <v>       0.25013000      -0.29519000       0.06281000 </v>
   <v>      -0.24987000      -0.29519000      -0.43719000 </v>
   <v>      -0.00013000      -0.29519000       0.31282000 </v>
   <v>       0.00013000       0.29519000      -0.43719000 </v>
   <v>       0.49987000      -0.29519000      -0.18718000 </v>
   <v>       0.24987000       0.29519000      -0.18718000 </v>
   <v>      -0.49995000      -0.32677000       0.06286000 </v>
   <v>       0.25005000       0.32677000       0.06286000 </v>
   <v>      -0.25005000      -0.32677000       0.31286000 </v>
   <v>      -0.24995000       0.32677000      -0.43714000 </v>
   <v>      -0.00005000       0.32677000       0.31286000 </v>
   <v>       0.00005000      -0.32677000      -0.43714000 </v>
   <v>       0.49995000       0.32677000      -0.18714000 </v>
   <v>       0.24995000      -0.32677000      -0.18714000 </v>
   <v>      -0.12461000       0.00017000       0.43687000 </v>
   <v>       0.37539000       0.00017000      -0.06313000 </v>
   <v>      -0.25013000      -0.07798000       0.06246000 </v>
   <v>      -0.00013000       0.07798000       0.06246000 </v>
   <v>      -0.24987000       0.07798000      -0.18754000 </v>
   <v>       0.00013000      -0.07798000      -0.18754000 </v>
   <v>      -0.12539000       0.00017000      -0.31313000 </v>
   <v>      -0.24987000      -0.29519000       0.06281000 </v>
   <v>       0.00013000       0.29519000       0.06281000 </v>
   <v>      -0.25013000       0.29519000      -0.18718000 </v>
   <v>      -0.00013000      -0.29519000      -0.18718000 </v>
   <v>      -0.24995000       0.32677000       0.06286000 </v>
   <v>       0.00005000      -0.32677000       0.06286000 </v>
   <v>      -0.25005000      -0.32677000      -0.18714000 </v>
   <v>      -0.00005000       0.32677000      -0.18714000 </v>
   <v>      -0.12461000       0.00017000      -0.06313000 </v>
  </varray>
 </structure>
 <varray name="primitive_index" >
  <v type="int" >        1 </v>
  <v type="int" >       51 </v>
  <v type="int" >       46 </v>
  <v type="int" >       52 </v>
  <v type="int" >       53 </v>
  <v type="int" >        2 </v>
  <v type="int" >        4 </v>
  <v type="int" >       15 </v>
  <v type="int" >       14 </v>
  <v type="int" >       24 </v>
  <v type="int" >       21 </v>
  <v type="int" >       30 </v>
  <v type="int" >       31 </v>
  <v type="int" >       41 </v>
  <v type="int" >       36 </v>
  <v type="int" >        5 </v>
  <v type="int" >        8 </v>
  <v type="int" >        7 </v>
  <v type="int" >       10 </v>
  <v type="int" >       44 </v>
  <v type="int" >       50 </v>
  <v type="int" >       57 </v>
  <v type="int" >       45 </v>
  <v type="int" >       47 </v>
  <v type="int" >       59 </v>
  <v type="int" >       56 </v>
  <v type="int" >       54 </v>
  <v type="int" >       16 </v>
  <v type="int" >       18 </v>
  <v type="int" >       13 </v>
  <v type="int" >       25 </v>
  <v type="int" >       19 </v>
  <v type="int" >       20 </v>
  <v type="int" >       23 </v>
  <v type="int" >       22 </v>
  <v type="int" >       33 </v>
  <v type="int" >       28 </v>
  <v type="int" >       35 </v>
  <v type="int" >       40 </v>
  <v type="int" >       34 </v>
  <v type="int" >       37 </v>
  <v type="int" >       38 </v>
  <v type="int" >       39 </v>
  <v type="int" >        3 </v>
  <v type="int" >        9 </v>
  <v type="int" >       49 </v>
  <v type="int" >       48 </v>
  <v type="int" >       58 </v>
  <v type="int" >       55 </v>
  <v type="int" >        6 </v>
  <v type="int" >       17 </v>
  <v type="int" >       12 </v>
  <v type="int" >       26 </v>
  <v type="int" >       27 </v>
  <v type="int" >       32 </v>
  <v type="int" >       29 </v>
  <v type="int" >       43 </v>
  <v type="int" >       42 </v>
  <v type="int" >       11 </v>
 </varray>
 <kpoints>
  <generation param="Gamma">
   <v type="int" name="divisions">       2        2        2 </v>
   <v name="usershift">      0.00000000       0.00000000       0.00000000 </v>
   <v name="genvec1">      0.50000000       0.00000000       0.00000000 </v>
   <v name="genvec2">      0.00000000       0.50000000       0.00000000 </v>
   <v name="genvec3">      0.00000000       0.00000000       0.50000000 </v>
   <v name="shift">      0.00000000       0.00000000       0.00000000 </v>
  </generation>
  <varray name="kpointlist" >
   <v>       0.00000000       0.00000000       0.00000000 </v>
   <v>       0.50000000       0.00000000       0.00000000 </v>
   <v>       0.00000000       0.50000000       0.00000000 </v>
   <v>       0.50000000       0.50000000       0.00000000 </v>
   <v>       0.00000000       0.00000000       0.50000000 </v>
   <v>       0.50000000       0.00000000       0.50000000 </v>
   <v>       0.00000000       0.50000000       0.50000000 </v>
   <v>       0.50000000       0.50000000       0.50000000 </v>
  </varray>
  <varray name="weights" >
   <v>       0.12500000 </v>
   <v>       0.12500000 </v>
   <v>       0.12500000 </v>
   <v>       0.12500000 </v>
   <v>       0.12500000 </v>
   <v>       0.12500000 </v>
   <v>       0.12500000 </v>
   <v>       0.12500000 </v>
  </varray>
  <varray name="tetrahedronlist"  type="int" >
   <v type="int" >        2        1        2        4        5 </v>
   <v type="int" >        2        1        3        4        5 </v>
   <v type="int" >        2        3        4        5        7 </v>
   <v type="int" >        2        2        4        5        6 </v>
   <v type="int" >        2        4        5        6        8 </v>
   <v type="int" >        2        4        5        7        8 </v>
   <v type="int" >        2        1        2        3        6 </v>
   <v type="int" >        2        2        3        4        6 </v>
   <v type="int" >        2        3        4        6        8 </v>
   <v type="int" >        2        1        3        5        6 </v>
   <v type="int" >        2        3        5        6        7 </v>
   <v type="int" >        2        3        6        7        8 </v>
   <v type="int" >        2        2        3        4        7 </v>
   <v type="int" >        2        1        2        3        7 </v>
   <v type="int" >        2        1        2        5        7 </v>
   <v type="int" >        2        2        4        7        8 </v>
   <v type="int" >        2        2        6        7        8 </v>
   <v type="int" >        2        2        5        6        7 </v>
   <v type="int" >        2        1        3        4        8 </v>
   <v type="int" >        2        1        2        4        8 </v>
   <v type="int" >        2        1        2        6        8 </v>
   <v type="int" >        2        1        3        7        8 </v>
   <v type="int" >        2        1        5        7        8 </v>
   <v type="int" >        2        1        5        6        8 </v>
  </varray>
  <i name="volumeweight">      0.02083333 </i>
 </kpoints>
 <parameters>
  <separator name="general" >
   <i type="string" name="SYSTEM">La2O2S</i>
   <i type="logical" name="LCOMPAT"> F  </i>
  </separator>
  <separator name="electronic" >
   <i type="string" name="PREC">normal</i>
   <i name="ENMAX">    600.00000000</i>
   <i name="ENAUG">    900.00000000</i>
   <i name="EDIFF">      0.00000100</i>
   <i type="int" name="IALGO">    38</i>
   <i type="int" name="IWAVPR">    11</i>
   <i type="int" name="NBANDS">   280</i>
   <i name="NELECT">    460.00000000</i>
   <i type="int" name="TURBO">     0</i>
   <i type="int" name="IRESTART">     0</i>
   <i type="int" name="NREBOOT">     0</i>
   <i type="int" name="NMIN">     0</i>
   <i name="EREF">      0.00000000</i>
   <separator name="electronic smearing" >
    <i type="int" name="ISMEAR">    -5</i>
    <i name="SIGMA">      0.20000000</i>
    <i name="KSPACING">      0.50000000</i>
    <i type="logical" name="KGAMMA"> T  </i>
   </separator>
   <separator name="electronic projectors" >
    <i type="logical" name="LREAL"> F  </i>
    <v name="ROPT">      0.00000000      0.00000000      0.00000000      0.00000000      0.00000000</v>
    <i type="int" name="LMAXPAW">  -100</i>
    <i type="int" name="LMAXMIX">     2</i>
    <i type="logical" name="NLSPLINE"> F  </i>
   </separator>
   <separator name="electronic startup" >
    <i type="int" name="ISTART">     0</i>
    <i type="int" name="ICHARG">     2</i>
    <i type="int" name="INIWAV">     1</i>
   </separator>
   <separator name="electronic spin" >
    <i type="int" name="ISPIN">     1</i>
    <i type="logical" name="LNONCOLLINEAR"> F  </i>
    <v name="MAGMOM">      1.00000000      1.00000000      1.00000000      1.00000000      1.00000000      1.00000000      1.00000000      1.00000000      1.00000000      1.00000000      1.00000000      1.00000000      1.00000000      1.00000000      1.00000000      1.00000000      1.00000000      1.00000000      1.00000000      1.00000000
      1.00000000      1.00000000      1.00000000      1.00000000      1.00000000      1.00000000      1.00000000      1.00000000      1.00000000      1.00000000      1.00000000      1.00000000      1.00000000      1.00000000      1.00000000      1.00000000      1.00000000      1.00000000      1.00000000      1.00000000
      1.00000000      1.00000000      1.00000000      1.00000000      1.00000000      1.00000000      1.00000000      1.00000000      1.00000000      1.00000000      1.00000000      1.00000000      1.00000000      1.00000000      1.00000000      1.00000000      1.00000000      1.00000000      1.00000000</v>
    <i name="NUPDOWN">     -1.00000000</i>
    <i type="logical" name="LSORBIT"> F  </i>
    <v name="SAXIS">      0.00000000      0.00000000      1.00000000</v>
    <i type="logical" name="LSPIRAL"> F  </i>
    <v name="QSPIRAL">      0.00000000      0.00000000      0.00000000</v>
    <i type="logical" name="LZEROZ"> F  </i>
   </separator>
   <separator name="electronic exchange-correlation" >
    <i type="logical" name="LASPH"> F  </i>
    <i type="logical" name="LMETAGGA"> F  </i>
   </separator>
   <separator name="electronic convergence" >
    <i type="int" name="NELM">    60</i>
    <i type="int" name="NELMDL">    -5</i>
    <i type="int" name="NELMIN">     4</i>
    <i name="ENINI">    600.00000000</i>
    <separator name="electronic convergence detail" >
     <i type="logical" name="LDIAG"> T  </i>
     <i type="logical" name="LSUBROT"> F  </i>
     <i name="WEIMIN">      0.00100000</i>
     <i name="EBREAK">      0.00000000</i>
     <i name="DEPER">      0.30000000</i>
     <i type="int" name="NRMM">     4</i>
     <i name="TIME">      0.40000000</i>
    </separator>
   </separator>
   <separator name="electronic mixer" >
    <i name="AMIX">      0.40000000</i>
    <i name="BMIX">      1.00000000</i>
    <i name="AMIN">      0.10000000</i>
    <i name="AMIX_MAG">      1.60000000</i>
    <i name="BMIX_MAG">      1.00000000</i>
    <separator name="electronic mixer details" >
     <i type="int" name="IMIX">     4</i>
     <i type="logical" name="MIXFIRST"> F  </i>
     <i type="int" name="MAXMIX">   -45</i>
     <i name="WC">    100.00000000</i>
     <i type="int" name="INIMIX">     1</i>
     <i type="int" name="MIXPRE">     1</i>
     <i type="int" name="MREMOVE">     5</i>
    </separator>
   </separator>
   <separator name="electronic dipolcorrection" >
    <i type="logical" name="LDIPOL"> F  </i>
    <i type="logical" name="LMONO"> F  </i>
    <i type="int" name="IDIPOL">     0</i>
    <i name="EPSILON">      1.00000000</i>
    <v name="DIPOL">   -100.00000000   -100.00000000   -100.00000000</v>
    <i name="EFIELD">      0.00000000</i>
   </separator>
  </separator>
  <separator name="grids" >
   <i type="int" name="NGX">    70</i>
   <i type="int" name="NGY">    60</i>
   <i type="int" name="NGZ">    70</i>
   <i type="int" name="NGXF">   140</i>
   <i type="int" name="NGYF">   120</i>
   <i type="int" name="NGZF">   140</i>
   <i type="logical" name="ADDGRID"> F  </i>
  </separator>
  <separator name="ionic" >
   <i type="int" name="NSW">     1</i>
   <i type="int" name="IBRION">     2</i>
   <i type="int" name="MDALGO">     0</i>
   <i type="int" name="ISIF">     2</i>
   <i name="PSTRESS">      0.00000000</i>
   <i name="EDIFFG">     -0.01000000</i>
   <i type="int" name="NFREE">    10</i>
   <i name="POTIM">      0.50000000</i>
   <i name="SMASS">     -3.00000000</i>
   <i name="SCALEE">      1.00000000</i>
  </separator>
  <separator name="ionic md" >
   <i name="TEBEG">      0.00010000</i>
   <i name="TEEND">      0.00010000</i>
   <i type="int" name="NBLOCK">     1</i>
   <i type="int" name="KBLOCK">     1</i>
   <i type="int" name="NPACO">   256</i>
   <i name="APACO">     16.00000000</i>
  </separator>
  <separator name="symmetry" >
   <i type="int" name="ISYM">     2</i>
   <i name="SYMPREC">      0.00001000</i>
  </separator>
  <separator name="dos" >
   <i type="int" name="LORBIT">     0</i>
   <v name="RWIGS">     -1.00000000     -1.00000000     -1.00000000     -1.00000000     -1.00000000</v>
   <i type="int" name="NEDOS">   301</i>
   <i name="EMIN">     10.00000000</i>
   <i name="EMAX">    -10.00000000</i>
   <i name="EFERMI">      0.00000000</i>
  </separator>
  <separator name="writing" >
   <i type="int" name="NWRITE">     2</i>
   <i type="logical" name="LWAVE"> F  </i>
   <i type="logical" name="LDOWNSAMPLE"> F  </i>
   <i type="logical" name="LCHARG"> F  </i>
   <i type="logical" name="LPARD"> F  </i>
   <i type="logical" name="LVTOT"> F  </i>
   <i type="logical" name="LVHAR"> F  </i>
   <i type="logical" name="LELF"> F  </i>
   <i type="logical" name="LOPTICS"> F  </i>
   <v name="STM">      0.00000000      0.00000000      0.00000000      0.00000000      0.00000000      0.00000000      0.00000000</v>
  </separator>
  <separator name="performance" >
   <i type="int" name="NPAR">    28</i>
   <i type="int" name="NSIM">     4</i>
   <i type="int" name="NBLK">    -1</i>
   <i type="logical" name="LPLANE"> T  </i>
   <i type="logical" name="LSCALAPACK"> T  </i>
   <i type="logical" name="LSCAAWARE"> F  </i>
   <i type="logical" name="LSCALU"> F  </i>
   <i type="logical" name="LASYNC"> F  </i>
   <i type="logical" name="LORBITALREAL"> F  </i>
  </separator>
  <separator name="miscellaneous" >
   <i type="int" name="IDIOT">     3</i>
   <i type="int" name="ISPECIAL">     0</i>
   <i type="logical" name="LMUSIC"> F  </i>
   <v name="POMASS">      7.01000000     24.30500000    208.98000000     32.06600000     16.00000000</v>
   <v name="DARWINR">      0.00000000      0.00000000      0.00000000      0.00000000      0.00000000</v>
   <v name="DARWINV">      1.00000000      1.00000000      1.00000000      1.00000000      1.00000000</v>
   <i type="logical" name="LCORR"> T  </i>
  </separator>
  <i type="logical" name="GGA_COMPAT"> T  </i>
  <i type="logical" name="LBERRY"> F  </i>
  <i type="int" name="ICORELEVEL">     0</i>
  <i type="logical" name="LDAU"> F  </i>
  <i type="int" name="I_CONSTRAINED_M">     0</i>
  <separator name="electronic exchange-correlation" >
   <i type="string" name="GGA">--</i>
   <i type="int" name="VOSKOWN">     0</i>
   <i type="logical" name="LHFCALC"> F  </i>
   <i type="string" name="PRECFOCK"></i>
   <i type="logical" name="LSYMGRAD"> F  </i>
   <i type="logical" name="LHFONE"> F  </i>
   <i type="logical" name="LRHFCALC"> F  </i>
   <i type="logical" name="LTHOMAS"> F  </i>
   <i type="logical" name="LMODELHF"> F  </i>
   <i name="ENCUT4O">     -1.00000000</i>
   <i type="int" name="EXXOEP">     0</i>
   <i type="int" name="FOURORBIT">     0</i>
   <i name="AEXX">      0.00000000</i>
   <i name="HFALPHA">      0.00000000</i>
   <i name="MCALPHA">      0.00000000</i>
   <i name="ALDAX">      1.00000000</i>
   <i name="AGGAX">      1.00000000</i>
   <i name="ALDAC">      1.00000000</i>
   <i name="AGGAC">      1.00000000</i>
   <i type="int" name="NKREDX">     1</i>
   <i type="int" name="NKREDY">     1</i>
   <i type="int" name="NKREDZ">     1</i>
   <i type="logical" name="SHIFTRED"> F  </i>
   <i type="logical" name="ODDONLY"> F  </i>
   <i type="logical" name="EVENONLY"> F  </i>
   <i type="int" name="LMAXFOCK">     0</i>
   <i type="int" name="NMAXFOCKAE">     0</i>
   <i type="logical" name="LFOCKAEDFT"> F  </i>
   <i name="HFSCREEN">      0.00000000</i>
   <i name="HFSCREENC">      0.00000000</i>
   <i type="int" name="NBANDSGWLOW">     0</i>
  </separator>
  <separator name="vdW DFT" >
   <i type="logical" name="LUSE_VDW"> F  </i>
   <i name="Zab_VDW">     -0.84910000</i>
   <i name="PARAM1">      0.12340000</i>
   <i name="PARAM2">      1.00000000</i>
   <i name="PARAM3">      0.00000000</i>
  </separator>
  <separator name="model GW" >
   <i type="int" name="MODEL_GW">     0</i>
   <i name="MODEL_EPS0">     12.17134107</i>
   <i name="MODEL_ALPHA">      1.00000000</i>
  </separator>
  <separator name="linear response parameters" >
   <i type="logical" name="LEPSILON"> F  </i>
   <i type="logical" name="LRPA"> F  </i>
   <i type="logical" name="LNABLA"> F  </i>
   <i type="logical" name="LVEL"> F  </i>
   <i type="int" name="KINTER">     0</i>
   <i name="CSHIFT">      0.10000000</i>
   <i name="OMEGAMAX">     -1.00000000</i>
   <i name="DEG_THRESHOLD">      0.00200000</i>
   <i name="RTIME">     -0.10000000</i>
   <i name="WPLASMAI">      0.00000000</i>
   <v name="DFIELD">      0.00000000      0.00000000      0.00000000</v>
   <v name="WPLASMA">      0.00000000      0.00000000      0.00000000      0.00000000      0.00000000      0.00000000      0.00000000      0.00000000      0.00000000</v>
  </separator>
  <separator name="orbital magnetization" >
   <i type="logical" name="NUCIND"> F  </i>
   <v name="MAGPOS">      0.00000000      0.00000000      0.00000000</v>
   <i type="logical" name="LNICSALL"> T  </i>
   <i type="logical" name="ORBITALMAG"> F  </i>
   <i type="logical" name="LMAGBLOCH"> F  </i>
   <i type="logical" name="LCHIMAG"> F  </i>
   <i type="logical" name="LGAUGE"> T  </i>
   <i type="int" name="MAGATOM">     0</i>
   <v name="MAGDIPOL">      0.00000000      0.00000000      0.00000000</v>
   <v name="AVECCONST">      0.00000000      0.00000000      0.00000000</v>
  </separator>
  <separator name="response functions" >
   <i type="logical" name="LADDER"> F  </i>
   <i type="logical" name="LRPAFORCE"> F  </i>
   <i type="logical" name="LFXC"> F  </i>
   <i type="logical" name="LHARTREE"> T  </i>
   <i type="int" name="IBSE">     0</i>
   <v type="int" name="KPOINT">    -1     0     0     0</v>
   <i type="logical" name="LTCTE"> F  </i>
   <i type="logical" name="LTETE"> F  </i>
   <i type="logical" name="LTRIPLET"> F  </i>
   <i type="logical" name="LFXCEPS"> F  </i>
   <i type="logical" name="LFXHEG"> F  </i>
   <i type="int" name="NATURALO">     2</i>
   <i type="logical" name="L2ORDER"> F  </i>
   <i type="logical" name="LMP2LT"> F  </i>
   <i type="logical" name="LUSEW"> F  </i>
   <i name="ENCUTGW">     -2.00000000</i>
   <i name="ENCUTGWSOFT">     -2.00000000</i>
   <i name="ENCUTLF">     -1.00000000</i>
   <i type="int" name="LMAXMP2">    -1</i>
   <i name="SCISSOR">      0.00000000</i>
   <i type="int" name="NOMEGA">     0</i>
   <i type="int" name="NOMEGAR">     0</i>
   <i type="int" name="NBANDSGW">    -1</i>
   <i type="int" name="NBANDSO">    -1</i>
   <i type="int" name="NBANDSV">    -1</i>
   <i type="int" name="NELM">     1</i>
   <i type="int" name="NELMHF">     1</i>
   <i type="int" name="DIM">     3</i>
   <i type="int" name="ANTIRES">     0</i>
   <i name="OMEGAMAX">    -30.00000000</i>
   <i name="OMEGAMIN">    -30.00000000</i>
   <i name="OMEGATL">   -200.00000000</i>
   <i type="int" name="OMEGAGRID">   140</i>
   <i name="CSHIFT">     -0.10000000</i>
   <i type="logical" name="SELFENERGY"> F  </i>
   <i type="logical" name="LSPECTRAL"> F  </i>
   <i type="logical" name="LSPECTRALGW"> F  </i>
   <i type="logical" name="LSINGLES"> F  </i>
   <i type="logical" name="LFERMIGW"> F  </i>
   <i type="logical" name="ODDONLYGW"> F  </i>
   <i type="logical" name="EVENONLYGW"> F  </i>
   <i type="int" name="NKREDLFX">     1</i>
   <i type="int" name="NKREDLFY">     1</i>
   <i type="int" name="NKREDLFZ">     1</i>
   <i type="int" name="MAXMEM">  2800</i>
   <i type="int" name="TELESCOPE">     0</i>
   <i type="int" name="TAUPAR">     1</i>
   <i type="int" name="OMEGAPAR">    -1</i>
   <i name="LAMBDA">      1.00000000</i>
  </separator>
  <separator name="External order field" >
   <i name="OFIELD_KAPPA">      0.00000000</i>
   <v name="OFIELD_K">      0.00000000      0.00000000      0.00000000</v>
   <i name="OFIELD_Q6_NEAR">      0.00000000</i>
   <i name="OFIELD_Q6_FAR">      0.00000000</i>
   <i name="OFIELD_A">      0.00000000</i>
  </separator>
 </parameters>
 <atominfo>
  <atoms>      59 </atoms>
  <types>       5 </types>
  <array name="atoms" >
   <dimension dim="1">ion</dimension>
   <field type="string">element</field>
   <field type="int">atomtype</field>
   <set>
    <rc><c>Li</c><c>   1</c></rc>
    <rc><c>Li</c><c>   1</c></rc>
    <rc><c>Li</c><c>   1</c></rc>
    <rc><c>Li</c><c>   1</c></rc>
    <rc><c>Li</c><c>   1</c></rc>
    <rc><c>Li</c><c>   1</c></rc>
    <rc><c>Mg</c><c>   2</c></rc>
    <rc><c>Mg</c><c>   2</c></rc>
    <rc><c>Mg</c><c>   2</c></rc>
    <rc><c>Mg</c><c>   2</c></rc>
    <rc><c>Mg</c><c>   2</c></rc>
    <rc><c>Bi</c><c>   3</c></rc>
    <rc><c>Bi</c><c>   3</c></rc>
    <rc><c>Bi</c><c>   3</c></rc>
    <rc><c>Bi</c><c>   3</c></rc>
    <rc><c>Bi</c><c>   3</c></rc>
    <rc><c>Bi</c><c>   3</c></rc>
    <rc><c>Bi</c><c>   3</c></rc>
    <rc><c>Bi</c><c>   3</c></rc>
    <rc><c>Bi</c><c>   3</c></rc>
    <rc><c>Bi</c><c>   3</c></rc>
    <rc><c>Bi</c><c>   3</c></rc>
    <rc><c>Bi</c><c>   3</c></rc>
    <rc><c>Bi</c><c>   3</c></rc>
    <rc><c>Bi</c><c>   3</c></rc>
    <rc><c>Bi</c><c>   3</c></rc>
    <rc><c>Bi</c><c>   3</c></rc>
    <rc><c>S </c><c>   4</c></rc>
    <rc><c>S </c><c>   4</c></rc>
    <rc><c>S </c><c>   4</c></rc>
    <rc><c>S </c><c>   4</c></rc>
    <rc><c>S </c><c>   4</c></rc>
    <rc><c>S </c><c>   4</c></rc>
    <rc><c>S </c><c>   4</c></rc>
    <rc><c>S </c><c>   4</c></rc>
    <rc><c>S </c><c>   4</c></rc>
    <rc><c>S </c><c>   4</c></rc>
    <rc><c>S </c><c>   4</c></rc>
    <rc><c>S </c><c>   4</c></rc>
    <rc><c>S </c><c>   4</c></rc>
    <rc><c>S </c><c>   4</c></rc>
    <rc><c>S </c><c>   4</c></rc>
    <rc><c>S </c><c>   4</c></rc>
    <rc><c>O </c><c>   5</c></rc>
    <rc><c>O </c><c>   5</c></rc>
    <rc><c>O </c><c>   5</c></rc>
    <rc><c>O </c><c>   5</c></rc>
    <rc><c>O </c><c>   5</c></rc>
    <rc><c>O </c><c>   5</c></rc>
    <rc><c>O </c><c>   5</c></rc>
    <rc><c>O </c><c>   5</c></rc>
    <rc><c>O </c><c>   5</c></rc>
    <rc><c>O </c><c>   5</c></rc>
    <rc><c>O </c><c>   5</c></rc>
    <rc><c>O </c><c>   5</c></rc>
    <rc><c>O </c><c>   5</c></rc>
    <rc><c>O </c><c>   5</c></rc>
    <rc><c>O </c><c>   5</c></rc>
    <rc><c>O </c><c>   5</c></rc>
   </set>
  </array>
  <array name="atomtypes" >
   <dimension dim="1">type</dimension>
   <field type="int">atomspertype</field>
   <field type="string">element</field>
   <field>mass</field>
   <field>valence</field>
   <field type="string">pseudopotential</field>
   <set>
    <rc><c>   6</c><c>Li</c><c>      7.01000000</c><c>      3.00000000</c><c>  PAW_PBE Li_sv 10Sep2004               </c></rc>
    <rc><c>   5</c><c>Mg</c><c>     24.30500000</c><c>      2.00000000</c><c>  PAW_PBE Mg 13Apr2007                  </c></rc>
    <rc><c>  16</c><c>Bi</c><c>    208.98000000</c><c>     15.00000000</c><c>  PAW_PBE Bi_d 06Sep2000                </c></rc>
    <rc><c>  16</c><c>S </c><c>     32.06600000</c><c>      6.00000000</c><c>  PAW_PBE S 06Sep2000                   </c></rc>
    <rc><c>  16</c><c>O </c><c>     16.00000000</c><c>      6.00000000</c><c>  PAW_PBE O 08Apr2002                   </c></rc>
   </set>
  </array>
 </atominfo>
 <structure name="initialpos" >
  <crystal>
   <varray name="basis" >
    <v>      11.17850000       0.00000000       0.00000000 </v>
    <v>       0.00000000       9.57460000       0.00000000 </v>
    <v>       0.00000000       0.00000000      11.18240000 </v>
   </varray>
   <i name="volume">   1196.84853820 </i>
   <varray name="rec_basis" >
    <v>       0.08945744       0.00000000       0.00000000 </v>
    <v>       0.00000000       0.10444301       0.00000000 </v>
    <v>       0.00000000       0.00000000       0.08942624 </v>
   </varray>
  </crystal>
  <varray name="positions" >
   <v>       0.37539000       0.00017000       0.43687000 </v>
   <v>       0.62539000       0.99984000       0.43687000 </v>
   <v>       0.87539000       0.00017000       0.43687000 </v>
   <v>       0.37461000       0.00017000       0.68687000 </v>
   <v>       0.62461000       0.99984000       0.68687000 </v>
   <v>       0.87461000       0.00017000       0.68687000 </v>
   <v>       0.12461000       0.99984000       0.18687000 </v>
   <v>       0.62461000       0.99984000       0.18687000 </v>
   <v>       0.37539000       0.00017000       0.93687000 </v>
   <v>       0.12461000       0.99984000       0.68687000 </v>
   <v>       0.87539000       0.00017000       0.93687000 </v>
   <v>       0.00013000       0.29519000       0.06281000 </v>
   <v>       0.25013000       0.70481000       0.06281000 </v>
   <v>       0.24987000       0.29519000       0.31282000 </v>
   <v>       0.49987000       0.70481000       0.31282000 </v>
   <v>       0.50013000       0.29519000       0.06281000 </v>
   <v>       0.75013000       0.70481000       0.06281000 </v>
   <v>       0.74987000       0.29519000       0.31282000 </v>
   <v>       0.99987000       0.70481000       0.31282000 </v>
   <v>       0.00013000       0.29519000       0.56281000 </v>
   <v>       0.25013000       0.70481000       0.56281000 </v>
   <v>       0.24987000       0.29519000       0.81282000 </v>
   <v>       0.49987000       0.70481000       0.81282000 </v>
   <v>       0.50013000       0.29519000       0.56281000 </v>
   <v>       0.75013000       0.70481000       0.56281000 </v>
   <v>       0.74987000       0.29519000       0.81282000 </v>
   <v>       0.99987000       0.70481000       0.81282000 </v>
   <v>       0.25005000       0.32677000       0.06286000 </v>
   <v>       0.00005000       0.67323000       0.06286000 </v>
   <v>       0.49995000       0.32677000       0.31286000 </v>
   <v>       0.24995000       0.67323000       0.31286000 </v>
   <v>       0.75005000       0.32677000       0.06286000 </v>
   <v>       0.50005000       0.67323000       0.06286000 </v>
   <v>       0.99995000       0.32677000       0.31286000 </v>
   <v>       0.74995000       0.67323000       0.31286000 </v>
   <v>       0.25005000       0.32677000       0.56286000 </v>
   <v>       0.00005000       0.67323000       0.56286000 </v>
   <v>       0.49995000       0.32677000       0.81286000 </v>
   <v>       0.24995000       0.67323000       0.81286000 </v>
   <v>       0.75005000       0.32677000       0.56286000 </v>
   <v>       0.50005000       0.67323000       0.56286000 </v>
   <v>       0.99995000       0.32677000       0.81286000 </v>
   <v>       0.74995000       0.67323000       0.81286000 </v>
   <v>       0.49987000       0.07798000       0.06246000 </v>
   <v>       0.24987000       0.92202000       0.06246000 </v>
   <v>       0.25013000       0.07798000       0.31246000 </v>
   <v>       0.00013000       0.92202000       0.31246000 </v>
   <v>       0.99987000       0.07798000       0.06246000 </v>
   <v>       0.74987000       0.92202000       0.06246000 </v>
   <v>       0.75013000       0.07798000       0.31246000 </v>
   <v>       0.50013000       0.92202000       0.31246000 </v>
   <v>       0.49987000       0.07798000       0.56246000 </v>
   <v>       0.24987000       0.92202000       0.56246000 </v>
   <v>       0.25013000       0.07798000       0.81246000 </v>
   <v>       0.00013000       0.92202000       0.81246000 </v>
   <v>       0.99987000       0.07798000       0.56246000 </v>
   <v>       0.74987000       0.92202000       0.56246000 </v>
   <v>       0.75013000       0.07798000       0.81246000 </v>
   <v>       0.50013000       0.92202000       0.81246000 </v>
  </varray>
 </structure>
 <calculation>
  <scstep>
   <time name="dav">   60.54   60.83</time>
   <time name="total">   60.63   60.91</time>
   <energy>
    <i name="alphaZ">   1060.66890660 </i>
    <i name="ewald"> -30393.85740294 </i>
    <i name="hartreedc"> -12724.86312073 </i>
    <i name="XCdc">   1247.14257677 </i>
    <i name="pawpsdc">  36635.26894311 </i>
    <i name="pawaedc"> -35972.74895369 </i>
    <i name="eentropy">      0.00000000 </i>
    <i name="bandstr">   1866.04778834 </i>
    <i name="atom">  44026.03258983 </i>
    <i name="e_fr_energy">   5743.69132729 </i>
    <i name="e_wo_entrp">   5743.69132729 </i>
    <i name="e_0_energy">   5743.69132729 </i>
   </energy>
  </scstep>
  <scstep>
   <time name="dav">   60.20   61.02</time>
   <time name="total">   60.21   61.03</time>
   <energy>
    <i name="e_fr_energy">    766.06273621 </i>
    <i name="e_wo_entrp">    766.06273621 </i>
    <i name="e_0_energy">    766.06273621 </i>
   </energy>
  </scstep>
  <scstep>
   <time name="dav">   69.47   70.90</time>
   <time name="total">   69.47   70.90</time>
   <energy>
    <i name="e_fr_energy">   -245.38888079 </i>
    <i name="e_wo_entrp">   -245.38888079 </i>
    <i name="e_0_energy">   -245.38888079 </i>
   </energy>
  </scstep>
  <scstep>
   <time name="dav">   72.89   73.75</time>
   <time name="total">   72.90   73.75</time>
   <energy>
    <i name="e_fr_energy">   -337.25947133 </i>
    <i name="e_wo_entrp">   -337.25947133 </i>
    <i name="e_0_energy">   -337.25947133 </i>
   </energy>
  </scstep>
  <scstep>
   <time name="dav">   93.72   95.57</time>
   <time name="total">   94.44   96.29</time>
   <energy>
    <i name="e_fr_energy">   -344.50532998 </i>
    <i name="e_wo_entrp">   -344.50532998 </i>
    <i name="e_0_energy">   -344.50532998 </i>
   </energy>
  </scstep>
  <scstep>
   <time name="dav">   85.99   86.77</time>
   <time name="total">   86.80   87.62</time>
   <energy>
    <i name="e_fr_energy">   -288.87110266 </i>
    <i name="e_wo_entrp">   -288.87110266 </i>
    <i name="e_0_energy">   -288.87110266 </i>
   </energy>
  </scstep>
  <scstep>
   <time name="dav">   65.53   66.09</time>
   <time name="total">   66.32   66.88</time>
   <energy>
    <i name="e_fr_energy">   -291.32471903 </i>
    <i name="e_wo_entrp">   -291.32471903 </i>
    <i name="e_0_energy">   -291.32471903 </i>
   </energy>
  </scstep>
  <scstep>
   <time name="dav">   76.30   76.75</time>
   <time name="total">   77.09   77.55</time>
   <energy>
    <i name="e_fr_energy">   -290.33322032 </i>
    <i name="e_wo_entrp">   -290.33322032 </i>
    <i name="e_0_energy">   -290.33322032 </i>
   </energy>
  </scstep>
  <scstep>
   <time name="dav">   73.90   74.81</time>
   <time name="total">   74.69   75.60</time>
   <energy>
    <i name="e_fr_energy">   -289.81430130 </i>
    <i name="e_wo_entrp">   -289.81430130 </i>
    <i name="e_0_energy">   -289.81430130 </i>
   </energy>
  </scstep>
  <scstep>
   <time name="dav">   73.48   74.81</time>
   <time name="total">   74.24   75.62</time>
   <energy>
    <i name="e_fr_energy">   -289.84091132 </i>
    <i name="e_wo_entrp">   -289.84091132 </i>
    <i name="e_0_energy">   -289.84091132 </i>
   </energy>
  </scstep>
  <scstep>
   <time name="dav">   81.33   82.50</time>
   <time name="total">   82.12   83.29</time>
   <energy>
    <i name="e_fr_energy">   -289.84723833 </i>
    <i name="e_wo_entrp">   -289.84723833 </i>
    <i name="e_0_energy">   -289.84723833 </i>
   </energy>
  </scstep>
  <scstep>
   <time name="dav">   79.17   80.59</time>
   <time name="total">   79.96   81.38</time>
   <energy>
    <i name="e_fr_energy">   -289.84979733 </i>
    <i name="e_wo_entrp">   -289.84979733 </i>
    <i name="e_0_energy">   -289.84979733 </i>
   </energy>
  </scstep>
  <scstep>
   <time name="dav">   72.12   72.74</time>
   <time name="total">   72.95   73.57</time>
   <energy>
    <i name="e_fr_energy">   -289.85108073 </i>
    <i name="e_wo_entrp">   -289.85108073 </i>
    <i name="e_0_energy">   -289.85108073 </i>
   </energy>
  </scstep>
  <scstep>
   <time name="dav">   81.75   82.64</time>
   <time name="total">   82.54   83.43</time>
   <energy>
    <i name="e_fr_energy">   -289.85119002 </i>
    <i name="e_wo_entrp">   -289.85119002 </i>
    <i name="e_0_energy">   -289.85119002 </i>
   </energy>
  </scstep>
  <scstep>
   <time name="dav">   79.74   80.37</time>
   <time name="total">   80.53   81.16</time>
   <energy>
    <i name="e_fr_energy">   -289.85121616 </i>
    <i name="e_wo_entrp">   -289.85121616 </i>
    <i name="e_0_energy">   -289.85121616 </i>
   </energy>
  </scstep>
  <scstep>
   <time name="dav">   63.85   64.41</time>
   <time name="total">   64.64   65.21</time>
   <energy>
    <i name="e_fr_energy">   -289.85123351 </i>
    <i name="e_wo_entrp">   -289.85123351 </i>
    <i name="e_0_energy">   -289.85123351 </i>
   </energy>
  </scstep>
  <scstep>
   <time name="dav">   66.87   67.22</time>
   <time name="total">   67.66   68.01</time>
   <energy>
    <i name="e_fr_energy">   -289.85123557 </i>
    <i name="e_wo_entrp">   -289.85123557 </i>
    <i name="e_0_energy">   -289.85123557 </i>
   </energy>
  </scstep>
  <scstep>
   <time name="dav">   56.96   57.27</time>
   <time name="total">   57.03   57.34</time>
   <energy>
    <i name="alphaZ">   1060.66890660 </i>
    <i name="ewald"> -30393.85740294 </i>
    <i name="hartreedc"> -12967.99134729 </i>
    <i name="XCdc">   1272.05799666 </i>
    <i name="pawpsdc">  43670.26796601 </i>
    <i name="pawaedc"> -42981.08182256 </i>
    <i name="eentropy">      0.00000000 </i>
    <i name="bandstr">  -3975.94812222 </i>
    <i name="atom">  44026.03258983 </i>
    <i name="e_fr_energy">   -289.85123590 </i>
    <i name="e_wo_entrp">   -289.85123590 </i>
    <i name="e_0_energy">   -289.85123590 </i>
   </energy>
  </scstep>
  <structure>
   <crystal>
    <varray name="basis" >
     <v>      11.17850000       0.00000000       0.00000000 </v>
     <v>       0.00000000       9.57460000       0.00000000 </v>
     <v>       0.00000000       0.00000000      11.18240000 </v>
    </varray>
    <i name="volume">   1196.84853820 </i>
    <varray name="rec_basis" >
     <v>       0.08945744       0.00000000       0.00000000 </v>
     <v>       0.00000000       0.10444301       0.00000000 </v>
     <v>       0.00000000       0.00000000       0.08942624 </v>
    </varray>
   </crystal>
   <varray name="positions" >
    <v>       0.37539000       0.00017000       0.43687000 </v>
    <v>       0.62539000       0.99984000       0.43687000 </v>
    <v>       0.87539000       0.00017000       0.43687000 </v>
    <v>       0.37461000       0.00017000       0.68687000 </v>
    <v>       0.62461000       0.99984000       0.68687000 </v>
    <v>       0.87461000       0.00017000       0.68687000 </v>
    <v>       0.12461000       0.99984000       0.18687000 </v>
    <v>       0.62461000       0.99984000       0.18687000 </v>
    <v>       0.37539000       0.00017000       0.93687000 </v>
    <v>       0.12461000       0.99984000       0.68687000 </v>
    <v>       0.87539000       0.00017000       0.93687000 </v>
    <v>       0.00013000       0.29519000       0.06281000 </v>
    <v>       0.25013000       0.70481000       0.06281000 </v>
    <v>       0.24987000       0.29519000       0.31282000 </v>
    <v>       0.49987000       0.70481000       0.31282000 </v>
    <v>       0.50013000       0.29519000       0.06281000 </v>
    <v>       0.75013000       0.70481000       0.06281000 </v>
    <v>       0.74987000       0.29519000       0.31282000 </v>
    <v>       0.99987000       0.70481000       0.31282000 </v>
    <v>       0.00013000       0.29519000       0.56281000 </v>
    <v>       0.25013000       0.70481000       0.56281000 </v>
    <v>       0.24987000       0.29519000       0.81282000 </v>
    <v>       0.49987000       0.70481000       0.81282000 </v>
    <v>       0.50013000       0.29519000       0.56281000 </v>
    <v>       0.75013000       0.70481000       0.56281000 </v>
    <v>       0.74987000       0.29519000       0.81282000 </v>
    <v>       0.99987000       0.70481000       0.81282000 </v>
    <v>       0.25005000       0.32677000       0.06286000 </v>
    <v>       0.00005000       0.67323000       0.06286000 </v>
    <v>       0.49995000       0.32677000       0.31286000 </v>
    <v>       0.24995000       0.67323000       0.31286000 </v>
    <v>       0.75005000       0.32677000       0.06286000 </v>
    <v>       0.50005000       0.67323000       0.06286000 </v>
    <v>       0.99995000       0.32677000       0.31286000 </v>
    <v>       0.74995000       0.67323000       0.31286000 </v>
    <v>       0.25005000       0.32677000       0.56286000 </v>
    <v>       0.00005000       0.67323000       0.56286000 </v>
    <v>       0.49995000       0.32677000       0.81286000 </v>
    <v>       0.24995000       0.67323000       0.81286000 </v>
    <v>       0.75005000       0.32677000       0.56286000 </v>
    <v>       0.50005000       0.67323000       0.56286000 </v>
    <v>       0.99995000       0.32677000       0.81286000 </v>
    <v>       0.74995000       0.67323000       0.81286000 </v>
    <v>       0.49987000       0.07798000       0.06246000 </v>
    <v>       0.24987000       0.92202000       0.06246000 </v>
    <v>       0.25013000       0.07798000       0.31246000 </v>
    <v>       0.00013000       0.92202000       0.31246000 </v>
    <v>       0.99987000       0.07798000       0.06246000 </v>
    <v>       0.74987000       0.92202000       0.06246000 </v>
    <v>       0.75013000       0.07798000       0.31246000 </v>
    <v>       0.50013000       0.92202000       0.31246000 </v>
    <v>       0.49987000       0.07798000       0.56246000 </v>
    <v>       0.24987000       0.92202000       0.56246000 </v>
    <v>       0.25013000       0.07798000       0.81246000 </v>
    <v>       0.00013000       0.92202000       0.81246000 </v>
    <v>       0.99987000       0.07798000       0.56246000 </v>
    <v>       0.74987000       0.92202000       0.56246000 </v>
    <v>       0.75013000       0.07798000       0.81246000 </v>
    <v>       0.50013000       0.92202000       0.81246000 </v>
   </varray>
  </structure>
  <varray name="forces" >
   <v>      -0.42349817       0.06607136      -0.44800362 </v>
   <v>      -0.00333202       0.00097742       0.11471714 </v>
   <v>       0.40709378      -0.06727423      -0.44751528 </v>
   <v>       0.31654425      -0.06041940      -0.34404120 </v>
   <v>       0.00814827       0.00011718       0.30913045 </v>
   <v>      -0.31351448       0.05939482      -0.33990595 </v>
   <v>       0.02804092       0.00507612       0.44000235 </v>
   <v>       0.02469423       0.00532146      -0.53213694 </v>
   <v>       0.16005021      -0.12561435       0.91834370 </v>
   <v>       0.02798143       0.00339943      -0.39954157 </v>
   <v>      -0.20946115       0.11342186       0.92002436 </v>
   <v>      -0.01345780      -0.06091947       0.24971089 </v>
   <v>       0.00207248       0.07892459       0.24838614 </v>
   <v>       0.03035119      -1.04961236       0.07434149 </v>
   <v>      -0.22950255      -0.00768335      -0.01583637 </v>
   <v>      -0.01921268      -0.07392090       0.14831675 </v>
   <v>       0.00582641       0.09182089       0.14744607 </v>
   <v>       0.23931583      -0.00395128      -0.01745524 </v>
   <v>      -0.01529829       1.03582054       0.07448825 </v>
   <v>       0.02552758       0.04100573      -0.44341705 </v>
   <v>      -0.03587021      -0.03152995      -0.44138811 </v>
   <v>      -0.05942775       1.00128199       0.09861850 </v>
   <v>       0.25517629      -0.03907874      -0.00177433 </v>
   <v>       0.01419542       0.03608610      -0.14766883 </v>
   <v>      -0.02818459      -0.03767340      -0.14673048 </v>
   <v>      -0.24374120       0.03527420       0.00030458 </v>
   <v>       0.07103486      -1.01313554       0.09850620 </v>
   <v>       0.00839516       0.09821898      -0.26559088 </v>
   <v>      -0.00996281      -0.09685807      -0.26341412 </v>
   <v>       0.16455235       0.17470595      -0.00468977 </v>
   <v>       0.06901430      -0.16560404      -0.02117879 </v>
   <v>      -0.00162921       0.09220805      -0.08149853 </v>
   <v>       0.00116964      -0.09100827      -0.07921688 </v>
   <v>      -0.06870873       0.16486140      -0.02214793 </v>
   <v>      -0.16304159      -0.17507421      -0.00214464 </v>
   <v>      -0.03280831       0.12181345       0.31999685 </v>
   <v>       0.03036028      -0.12007910       0.31940044 </v>
   <v>      -0.13694885       0.09814954       0.00593404 </v>
   <v>      -0.05590630      -0.07588603      -0.03680770 </v>
   <v>      -0.00657349       0.19451845       0.07770974 </v>
   <v>       0.00674878      -0.19410971       0.07643486 </v>
   <v>       0.05592046       0.07304248      -0.03488227 </v>
   <v>       0.13954457      -0.09988188       0.00250685 </v>
   <v>      -0.01990255       0.28135949      -0.08966704 </v>
   <v>       0.06790706      -0.28007927      -0.23811542 </v>
   <v>      -0.42447478       1.00160004      -0.47485955 </v>
   <v>       0.40097290      -0.99932056      -0.46611390 </v>
   <v>      -0.05196448       0.27677397      -0.23298888 </v>
   <v>       0.03645883      -0.28412453      -0.09542015 </v>
   <v>      -1.16803295       0.07581152       0.12582938 </v>
   <v>       1.14924678      -0.07575435       0.13322352 </v>
   <v>       0.00698826      -0.02419244       0.08725832 </v>
   <v>       0.10725722       0.01202651       1.32028787 </v>
   <v>       0.54011377      -0.68487111      -0.65100590 </v>
   <v>      -0.55918981       0.68713529      -0.64497847 </v>
   <v>      -0.10647391      -0.01558565       1.31788992 </v>
   <v>       0.00564676       0.02499119       0.08728333 </v>
   <v>       1.18407910      -0.03296090      -0.14221568 </v>
   <v>      -1.19031069       0.03499312      -0.14374048 </v>
  </varray>
  <varray name="stress" >
   <v>     -10.65012615      -0.41717724       0.01258669 </v>
   <v>      -0.41717705     -13.31917007      -0.01610221 </v>
   <v>       0.01258661      -0.01610240      -9.54861108 </v>
  </varray>
  <energy>
   <i name="e_fr_energy">   -302.47881572 </i>
   <i name="e_wo_entrp">   -302.47881572 </i>
   <i name="e_0_energy">      0.00000000 </i>
  </energy>
  <time name="totalsc"> 1432.54 1448.87</time>
  <eigenvalues>
   <array>
    <dimension dim="1">band</dimension>
    <dimension dim="2">kpoint</dimension>
    <dimension dim="3">spin</dimension>
    <field>eigene</field>
    <field>occ</field>
    <set>
     <set comment="spin 1">
      <set comment="kpoint 1">
       <r>  -40.1384    1.0000 </r>
       <r>  -40.1359    1.0000 </r>
       <r>  -39.8540    1.0000 </r>
       <r>  -39.8393    1.0000 </r>
       <r>  -39.5714    1.0000 </r>
       <r>  -39.5692    1.0000 </r>
       <r>  -18.9541    1.0000 </r>
       <r>  -18.9496    1.0000 </r>
       <r>  -18.8841    1.0000 </r>
       <r>  -18.8808    1.0000 </r>
       <r>  -18.8769    1.0000 </r>
       <r>  -18.8737    1.0000 </r>
       <r>  -18.7848    1.0000 </r>
       <r>  -18.7807    1.0000 </r>
       <r>  -18.7621    1.0000 </r>
       <r>  -18.7579    1.0000 </r>
       <r>  -18.7539    1.0000 </r>
       <r>  -18.7529    1.0000 </r>
       <r>  -18.7445    1.0000 </r>
       <r>  -18.7436    1.0000 </r>
       <r>  -18.7380    1.0000 </r>
       <r>  -18.7367    1.0000 </r>
       <r>  -18.6876    1.0000 </r>
       <r>  -18.6847    1.0000 </r>
       <r>  -18.6814    1.0000 </r>
       <r>  -18.6793    1.0000 </r>
       <r>  -18.6790    1.0000 </r>
       <r>  -18.6773    1.0000 </r>
       <r>  -18.6725    1.0000 </r>
       <r>  -18.6696    1.0000 </r>
       <r>  -18.6695    1.0000 </r>
       <r>  -18.6683    1.0000 </r>
       <r>  -18.6654    1.0000 </r>
       <r>  -18.6618    1.0000 </r>
       <r>  -18.6614    1.0000 </r>
       <r>  -18.6601    1.0000 </r>
       <r>  -18.6597    1.0000 </r>
       <r>  -18.6580    1.0000 </r>
       <r>  -18.6556    1.0000 </r>
       <r>  -18.6542    1.0000 </r>
       <r>  -18.6535    1.0000 </r>
       <r>  -18.6489    1.0000 </r>
       <r>  -18.6430    1.0000 </r>
       <r>  -18.6419    1.0000 </r>
       <r>  -18.6371    1.0000 </r>
       <r>  -18.6359    1.0000 </r>
       <r>  -18.6054    1.0000 </r>
       <r>  -18.6022    1.0000 </r>
       <r>  -18.5991    1.0000 </r>
       <r>  -18.5976    1.0000 </r>
       <r>  -18.5919    1.0000 </r>
       <r>  -18.5890    1.0000 </r>
       <r>  -18.5824    1.0000 </r>
       <r>  -18.5813    1.0000 </r>
       <r>  -18.5800    1.0000 </r>
       <r>  -18.5785    1.0000 </r>
       <r>  -18.5349    1.0000 </r>
       <r>  -18.5308    1.0000 </r>
       <r>  -18.5191    1.0000 </r>
       <r>  -18.5161    1.0000 </r>
       <r>  -18.5153    1.0000 </r>
       <r>  -18.5149    1.0000 </r>
       <r>  -18.5144    1.0000 </r>
       <r>  -18.5142    1.0000 </r>
       <r>  -18.5137    1.0000 </r>
       <r>  -18.5117    1.0000 </r>
       <r>  -18.5086    1.0000 </r>
       <r>  -18.5052    1.0000 </r>
       <r>  -18.4847    1.0000 </r>
       <r>  -18.4835    1.0000 </r>
       <r>  -18.4791    1.0000 </r>
       <r>  -18.4770    1.0000 </r>
       <r>  -18.4506    1.0000 </r>
       <r>  -18.4465    1.0000 </r>
       <r>  -18.4309    1.0000 </r>
       <r>  -18.4267    1.0000 </r>
       <r>  -18.4235    1.0000 </r>
       <r>  -18.4183    1.0000 </r>
       <r>  -18.4110    1.0000 </r>
       <r>  -18.4058    1.0000 </r>
       <r>  -18.3335    1.0000 </r>
       <r>  -18.3271    1.0000 </r>
       <r>  -18.2249    1.0000 </r>
       <r>  -18.2187    1.0000 </r>
       <r>  -18.1971    1.0000 </r>
       <r>  -18.1910    1.0000 </r>
       <r>  -13.5902    1.0000 </r>
       <r>  -13.4916    1.0000 </r>
       <r>  -12.9367    1.0000 </r>
       <r>  -12.8373    1.0000 </r>
       <r>  -12.8348    1.0000 </r>
       <r>  -12.8025    1.0000 </r>
       <r>  -12.7468    1.0000 </r>
       <r>  -12.7433    1.0000 </r>
       <r>  -12.7134    1.0000 </r>
       <r>  -12.6980    1.0000 </r>
       <r>  -12.6645    1.0000 </r>
       <r>  -12.6370    1.0000 </r>
       <r>  -12.6288    1.0000 </r>
       <r>  -12.5981    1.0000 </r>
       <r>  -12.0256    1.0000 </r>
       <r>  -11.9446    1.0000 </r>
       <r>   -9.3590    1.0000 </r>
       <r>   -9.0634    1.0000 </r>
       <r>   -8.5622    1.0000 </r>
       <r>   -8.5319    1.0000 </r>
       <r>   -8.5166    1.0000 </r>
       <r>   -8.4743    1.0000 </r>
       <r>   -8.3392    1.0000 </r>
       <r>   -8.3124    1.0000 </r>
       <r>   -8.2899    1.0000 </r>
       <r>   -8.2500    1.0000 </r>
       <r>   -8.0612    1.0000 </r>
       <r>   -8.0597    1.0000 </r>
       <r>   -8.0230    1.0000 </r>
       <r>   -8.0212    1.0000 </r>
       <r>   -7.3877    1.0000 </r>
       <r>   -7.3868    1.0000 </r>
       <r>   -6.4043    1.0000 </r>
       <r>   -6.4012    1.0000 </r>
       <r>   -6.3665    1.0000 </r>
       <r>   -6.3631    1.0000 </r>
       <r>   -5.5543    1.0000 </r>
       <r>   -5.5188    1.0000 </r>
       <r>   -5.3943    1.0000 </r>
       <r>   -5.3691    1.0000 </r>
       <r>   -5.3632    1.0000 </r>
       <r>   -5.2791    1.0000 </r>
       <r>   -5.2414    1.0000 </r>
       <r>   -5.1951    1.0000 </r>
       <r>   -5.1525    1.0000 </r>
       <r>   -5.0881    1.0000 </r>
       <r>   -3.8379    1.0000 </r>
       <r>   -3.6877    1.0000 </r>
       <r>   -1.5323    1.0000 </r>
       <r>   -1.3143    1.0000 </r>
       <r>   -1.1630    1.0000 </r>
       <r>   -1.0015    1.0000 </r>
       <r>   -0.6123    1.0000 </r>
       <r>   -0.5559    1.0000 </r>
       <r>   -0.5267    1.0000 </r>
       <r>   -0.4995    1.0000 </r>
       <r>   -0.2262    1.0000 </r>
       <r>   -0.2071    1.0000 </r>
       <r>   -0.1874    1.0000 </r>
       <r>   -0.1706    1.0000 </r>
       <r>    0.0475    1.0000 </r>
       <r>    0.0697    1.0000 </r>
       <r>    0.2034    1.0000 </r>
       <r>    0.3667    1.0000 </r>
       <r>    0.4445    1.0000 </r>
       <r>    0.5653    1.0000 </r>
       <r>    0.6025    1.0000 </r>
       <r>    0.6073    1.0000 </r>
       <r>    0.6477    1.0000 </r>
       <r>    0.6879    1.0000 </r>
       <r>    0.7207    1.0000 </r>
       <r>    0.7332    1.0000 </r>
       <r>    0.7473    1.0000 </r>
       <r>    0.8341    1.0000 </r>
       <r>    0.8547    1.0000 </r>
       <r>    0.8759    1.0000 </r>
       <r>    0.9429    1.0000 </r>
       <r>    0.9574    1.0000 </r>
       <r>    0.9730    1.0000 </r>
       <r>    1.0143    1.0000 </r>
       <r>    1.0662    1.0000 </r>
       <r>    1.1323    1.0000 </r>
       <r>    1.2231    1.0000 </r>
       <r>    1.2681    1.0000 </r>
       <r>    1.3069    1.0000 </r>
       <r>    1.3468    1.0000 </r>
       <r>    1.4032    1.0000 </r>
       <r>    1.4396    1.0000 </r>
       <r>    1.4445    1.0000 </r>
       <r>    1.5082    1.0000 </r>
       <r>    1.5097    1.0000 </r>
       <r>    1.5744    1.0000 </r>
       <r>    1.6151    1.0000 </r>
       <r>    1.6641    1.0000 </r>
       <r>    1.7017    1.0000 </r>
       <r>    1.8121    1.0000 </r>
       <r>    1.8399    1.0000 </r>
       <r>    1.8518    1.0000 </r>
       <r>    1.8798    1.0000 </r>
       <r>    1.9743    1.0000 </r>
       <r>    2.0643    1.0000 </r>
       <r>    2.1177    1.0000 </r>
       <r>    2.1822    1.0000 </r>
       <r>    2.2557    1.0000 </r>
       <r>    2.2834    1.0000 </r>
       <r>    2.3385    1.0000 </r>
       <r>    2.4920    1.0000 </r>
       <r>    2.5128    1.0000 </r>
       <r>    2.5330    1.0000 </r>
       <r>    2.5414    1.0000 </r>
       <r>    2.5728    1.0000 </r>
       <r>    2.5738    1.0000 </r>
       <r>    2.6173    1.0000 </r>
       <r>    2.6293    1.0000 </r>
       <r>    2.6746    1.0000 </r>
       <r>    2.6902    1.0000 </r>
       <r>    2.7157    1.0000 </r>
       <r>    2.7485    1.0000 </r>
       <r>    2.7834    1.0000 </r>
       <r>    2.8501    1.0000 </r>
       <r>    2.8678    1.0000 </r>
       <r>    2.9035    1.0000 </r>
       <r>    2.9174    1.0000 </r>
       <r>    2.9500    1.0000 </r>
       <r>    2.9716    1.0000 </r>
       <r>    3.0292    1.0000 </r>
       <r>    3.0386    1.0000 </r>
       <r>    3.0494    1.0000 </r>
       <r>    3.0547    1.0000 </r>
       <r>    3.1173    1.0000 </r>
       <r>    3.1380    1.0000 </r>
       <r>    3.1413    1.0000 </r>
       <r>    3.1849    1.0000 </r>
       <r>    3.2041    1.0000 </r>
       <r>    3.2995    1.0000 </r>
       <r>    3.3097    1.0000 </r>
       <r>    3.3714    1.0000 </r>
       <r>    3.4514    1.0000 </r>
       <r>    3.5411    1.0000 </r>
       <r>    3.7549    1.0000 </r>
       <r>    4.1432    1.0000 </r>
       <r>    4.1517    1.0000 </r>
       <r>    4.2065    1.0000 </r>
       <r>    4.2090    1.0000 </r>
       <r>    4.9778    0.0000 </r>
       <r>    4.9812    0.0000 </r>
       <r>    5.1652    0.0000 </r>
       <r>    5.1752    0.0000 </r>
       <r>    5.6981    0.0000 </r>
       <r>    5.7021    0.0000 </r>
       <r>    5.8131    0.0000 </r>
       <r>    5.8173    0.0000 </r>
       <r>    6.0785    0.0000 </r>
       <r>    6.0890    0.0000 </r>
       <r>    6.1100    0.0000 </r>
       <r>    6.1275    0.0000 </r>
       <r>    6.2043    0.0000 </r>
       <r>    6.2070    0.0000 </r>
       <r>    6.2366    0.0000 </r>
       <r>    6.2391    0.0000 </r>
       <r>    7.0254    0.0000 </r>
       <r>    7.0409    0.0000 </r>
       <r>    7.3160    0.0000 </r>
       <r>    7.3260    0.0000 </r>
       <r>    7.7746    0.0000 </r>
       <r>    7.7772    0.0000 </r>
       <r>    7.8959    0.0000 </r>
       <r>    7.9055    0.0000 </r>
       <r>    7.9313    0.0000 </r>
       <r>    7.9533    0.0000 </r>
       <r>    8.1099    0.0000 </r>
       <r>    8.1135    0.0000 </r>
       <r>    8.2332    0.0000 </r>
       <r>    8.6149    0.0000 </r>
       <r>    8.6188    0.0000 </r>
       <r>    8.7511    0.0000 </r>
       <r>    8.7674    0.0000 </r>
       <r>    8.7868    0.0000 </r>
       <r>    8.9067    0.0000 </r>
       <r>    8.9766    0.0000 </r>
       <r>    9.0033    0.0000 </r>
       <r>    9.0115    0.0000 </r>
       <r>    9.0159    0.0000 </r>
       <r>    9.0973    0.0000 </r>
       <r>    9.1135    0.0000 </r>
       <r>    9.1258    0.0000 </r>
       <r>    9.1929    0.0000 </r>
       <r>    9.2154    0.0000 </r>
       <r>    9.3920    0.0000 </r>
       <r>    9.4135    0.0000 </r>
       <r>    9.4659    0.0000 </r>
       <r>    9.4970    0.0000 </r>
       <r>    9.7556    0.0000 </r>
       <r>    9.8078    0.0000 </r>
      </set>
      <set comment="kpoint 2">
       <r>  -40.1384    1.0000 </r>
       <r>  -40.1359    1.0000 </r>
       <r>  -39.8540    1.0000 </r>
       <r>  -39.8393    1.0000 </r>
       <r>  -39.5714    1.0000 </r>
       <r>  -39.5692    1.0000 </r>
       <r>  -18.9541    1.0000 </r>
       <r>  -18.9496    1.0000 </r>
       <r>  -18.8840    1.0000 </r>
       <r>  -18.8807    1.0000 </r>
       <r>  -18.8769    1.0000 </r>
       <r>  -18.8737    1.0000 </r>
       <r>  -18.7848    1.0000 </r>
       <r>  -18.7808    1.0000 </r>
       <r>  -18.7621    1.0000 </r>
       <r>  -18.7579    1.0000 </r>
       <r>  -18.7540    1.0000 </r>
       <r>  -18.7530    1.0000 </r>
       <r>  -18.7445    1.0000 </r>
       <r>  -18.7436    1.0000 </r>
       <r>  -18.7380    1.0000 </r>
       <r>  -18.7367    1.0000 </r>
       <r>  -18.6871    1.0000 </r>
       <r>  -18.6839    1.0000 </r>
       <r>  -18.6813    1.0000 </r>
       <r>  -18.6799    1.0000 </r>
       <r>  -18.6794    1.0000 </r>
       <r>  -18.6777    1.0000 </r>
       <r>  -18.6726    1.0000 </r>
       <r>  -18.6697    1.0000 </r>
       <r>  -18.6696    1.0000 </r>
       <r>  -18.6684    1.0000 </r>
       <r>  -18.6641    1.0000 </r>
       <r>  -18.6619    1.0000 </r>
       <r>  -18.6616    1.0000 </r>
       <r>  -18.6609    1.0000 </r>
       <r>  -18.6589    1.0000 </r>
       <r>  -18.6581    1.0000 </r>
       <r>  -18.6567    1.0000 </r>
       <r>  -18.6539    1.0000 </r>
       <r>  -18.6536    1.0000 </r>
       <r>  -18.6487    1.0000 </r>
       <r>  -18.6425    1.0000 </r>
       <r>  -18.6423    1.0000 </r>
       <r>  -18.6368    1.0000 </r>
       <r>  -18.6360    1.0000 </r>
       <r>  -18.6053    1.0000 </r>
       <r>  -18.6021    1.0000 </r>
       <r>  -18.5991    1.0000 </r>
       <r>  -18.5976    1.0000 </r>
       <r>  -18.5920    1.0000 </r>
       <r>  -18.5890    1.0000 </r>
       <r>  -18.5825    1.0000 </r>
       <r>  -18.5813    1.0000 </r>
       <r>  -18.5800    1.0000 </r>
       <r>  -18.5785    1.0000 </r>
       <r>  -18.5349    1.0000 </r>
       <r>  -18.5308    1.0000 </r>
       <r>  -18.5191    1.0000 </r>
       <r>  -18.5162    1.0000 </r>
       <r>  -18.5151    1.0000 </r>
       <r>  -18.5150    1.0000 </r>
       <r>  -18.5144    1.0000 </r>
       <r>  -18.5142    1.0000 </r>
       <r>  -18.5138    1.0000 </r>
       <r>  -18.5117    1.0000 </r>
       <r>  -18.5086    1.0000 </r>
       <r>  -18.5052    1.0000 </r>
       <r>  -18.4847    1.0000 </r>
       <r>  -18.4835    1.0000 </r>
       <r>  -18.4791    1.0000 </r>
       <r>  -18.4770    1.0000 </r>
       <r>  -18.4506    1.0000 </r>
       <r>  -18.4465    1.0000 </r>
       <r>  -18.4309    1.0000 </r>
       <r>  -18.4267    1.0000 </r>
       <r>  -18.4235    1.0000 </r>
       <r>  -18.4183    1.0000 </r>
       <r>  -18.4110    1.0000 </r>
       <r>  -18.4058    1.0000 </r>
       <r>  -18.3335    1.0000 </r>
       <r>  -18.3271    1.0000 </r>
       <r>  -18.2249    1.0000 </r>
       <r>  -18.2187    1.0000 </r>
       <r>  -18.1971    1.0000 </r>
       <r>  -18.1910    1.0000 </r>
       <r>  -13.5889    1.0000 </r>
       <r>  -13.4930    1.0000 </r>
       <r>  -12.9324    1.0000 </r>
       <r>  -12.8487    1.0000 </r>
       <r>  -12.8221    1.0000 </r>
       <r>  -12.7912    1.0000 </r>
       <r>  -12.7691    1.0000 </r>
       <r>  -12.7631    1.0000 </r>
       <r>  -12.7103    1.0000 </r>
       <r>  -12.6691    1.0000 </r>
       <r>  -12.6515    1.0000 </r>
       <r>  -12.6487    1.0000 </r>
       <r>  -12.6343    1.0000 </r>
       <r>  -12.6005    1.0000 </r>
       <r>  -12.0259    1.0000 </r>
       <r>  -11.9444    1.0000 </r>
       <r>   -9.1527    1.0000 </r>
       <r>   -9.1382    1.0000 </r>
       <r>   -8.8776    1.0000 </r>
       <r>   -8.8615    1.0000 </r>
       <r>   -8.3526    1.0000 </r>
       <r>   -8.3520    1.0000 </r>
       <r>   -8.3510    1.0000 </r>
       <r>   -8.3361    1.0000 </r>
       <r>   -8.1656    1.0000 </r>
       <r>   -8.1644    1.0000 </r>
       <r>   -8.1638    1.0000 </r>
       <r>   -8.1507    1.0000 </r>
       <r>   -7.7225    1.0000 </r>
       <r>   -7.7172    1.0000 </r>
       <r>   -7.6119    1.0000 </r>
       <r>   -7.6077    1.0000 </r>
       <r>   -6.0052    1.0000 </r>
       <r>   -5.9685    1.0000 </r>
       <r>   -5.9178    1.0000 </r>
       <r>   -5.9134    1.0000 </r>
       <r>   -5.8821    1.0000 </r>
       <r>   -5.8081    1.0000 </r>
       <r>   -5.7687    1.0000 </r>
       <r>   -5.7637    1.0000 </r>
       <r>   -5.6699    1.0000 </r>
       <r>   -5.6184    1.0000 </r>
       <r>   -5.5290    1.0000 </r>
       <r>   -5.5109    1.0000 </r>
       <r>   -4.4602    1.0000 </r>
       <r>   -4.4459    1.0000 </r>
       <r>   -4.2925    1.0000 </r>
       <r>   -4.2810    1.0000 </r>
       <r>   -1.2209    1.0000 </r>
       <r>   -1.1729    1.0000 </r>
       <r>   -0.8484    1.0000 </r>
       <r>   -0.8365    1.0000 </r>
       <r>   -0.4993    1.0000 </r>
       <r>   -0.4019    1.0000 </r>
       <r>   -0.0241    1.0000 </r>
       <r>   -0.0023    1.0000 </r>
       <r>    0.0032    1.0000 </r>
       <r>    0.0250    1.0000 </r>
       <r>    0.1212    1.0000 </r>
       <r>    0.1538    1.0000 </r>
       <r>    0.1724    1.0000 </r>
       <r>    0.2392    1.0000 </r>
       <r>    0.2656    1.0000 </r>
       <r>    0.3052    1.0000 </r>
       <r>    0.5023    1.0000 </r>
       <r>    0.5078    1.0000 </r>
       <r>    0.5463    1.0000 </r>
       <r>    0.5499    1.0000 </r>
       <r>    0.5733    1.0000 </r>
       <r>    0.5821    1.0000 </r>
       <r>    0.6456    1.0000 </r>
       <r>    0.6657    1.0000 </r>
       <r>    0.7173    1.0000 </r>
       <r>    0.7231    1.0000 </r>
       <r>    0.8210    1.0000 </r>
       <r>    0.8892    1.0000 </r>
       <r>    0.9180    1.0000 </r>
       <r>    0.9689    1.0000 </r>
       <r>    1.0380    1.0000 </r>
       <r>    1.0420    1.0000 </r>
       <r>    1.1552    1.0000 </r>
       <r>    1.1667    1.0000 </r>
       <r>    1.1934    1.0000 </r>
       <r>    1.2497    1.0000 </r>
       <r>    1.2719    1.0000 </r>
       <r>    1.3157    1.0000 </r>
       <r>    1.3818    1.0000 </r>
       <r>    1.4298    1.0000 </r>
       <r>    1.4441    1.0000 </r>
       <r>    1.4523    1.0000 </r>
       <r>    1.4980    1.0000 </r>
       <r>    1.4988    1.0000 </r>
       <r>    1.5661    1.0000 </r>
       <r>    1.5857    1.0000 </r>
       <r>    1.6583    1.0000 </r>
       <r>    1.6727    1.0000 </r>
       <r>    1.7055    1.0000 </r>
       <r>    1.8505    1.0000 </r>
       <r>    1.8539    1.0000 </r>
       <r>    1.9129    1.0000 </r>
       <r>    1.9767    1.0000 </r>
       <r>    1.9868    1.0000 </r>
       <r>    2.0253    1.0000 </r>
       <r>    2.0494    1.0000 </r>
       <r>    2.0859    1.0000 </r>
       <r>    2.1042    1.0000 </r>
       <r>    2.1378    1.0000 </r>
       <r>    2.2230    1.0000 </r>
       <r>    2.3408    1.0000 </r>
       <r>    2.3528    1.0000 </r>
       <r>    2.4193    1.0000 </r>
       <r>    2.4257    1.0000 </r>
       <r>    2.4918    1.0000 </r>
       <r>    2.5222    1.0000 </r>
       <r>    2.5383    1.0000 </r>
       <r>    2.5748    1.0000 </r>
       <r>    2.6261    1.0000 </r>
       <r>    2.6281    1.0000 </r>
       <r>    2.7139    1.0000 </r>
       <r>    2.7174    1.0000 </r>
       <r>    2.7460    1.0000 </r>
       <r>    2.7735    1.0000 </r>
       <r>    2.7793    1.0000 </r>
       <r>    2.8380    1.0000 </r>
       <r>    2.8883    1.0000 </r>
       <r>    2.9209    1.0000 </r>
       <r>    2.9566    1.0000 </r>
       <r>    2.9682    1.0000 </r>
       <r>    3.0019    1.0000 </r>
       <r>    3.0166    1.0000 </r>
       <r>    3.0855    1.0000 </r>
       <r>    3.1047    1.0000 </r>
       <r>    3.1858    1.0000 </r>
       <r>    3.2162    1.0000 </r>
       <r>    3.3254    1.0000 </r>
       <r>    3.4222    1.0000 </r>
       <r>    3.4472    1.0000 </r>
       <r>    3.4574    1.0000 </r>
       <r>    3.4913    1.0000 </r>
       <r>    3.4951    1.0000 </r>
       <r>    3.5783    1.0000 </r>
       <r>    3.5983    1.0000 </r>
       <r>    3.6691    1.0000 </r>
       <r>    3.8946    1.0000 </r>
       <r>    5.6375    0.0000 </r>
       <r>    5.6473    0.0000 </r>
       <r>    5.6482    0.0000 </r>
       <r>    5.6575    0.0000 </r>
       <r>    5.7471    0.0000 </r>
       <r>    5.7481    0.0000 </r>
       <r>    5.7631    0.0000 </r>
       <r>    5.7662    0.0000 </r>
       <r>    7.1758    0.0000 </r>
       <r>    7.1934    0.0000 </r>
       <r>    7.2363    0.0000 </r>
       <r>    7.2871    0.0000 </r>
       <r>    7.3317    0.0000 </r>
       <r>    7.3704    0.0000 </r>
       <r>    7.3918    0.0000 </r>
       <r>    7.4139    0.0000 </r>
       <r>    7.4773    0.0000 </r>
       <r>    7.4825    0.0000 </r>
       <r>    7.4963    0.0000 </r>
       <r>    7.5156    0.0000 </r>
       <r>    7.8009    0.0000 </r>
       <r>    7.8252    0.0000 </r>
       <r>    7.8304    0.0000 </r>
       <r>    7.8393    0.0000 </r>
       <r>    7.8485    0.0000 </r>
       <r>    7.8734    0.0000 </r>
       <r>    7.8921    0.0000 </r>
       <r>    7.9015    0.0000 </r>
       <r>    7.9655    0.0000 </r>
       <r>    7.9938    0.0000 </r>
       <r>    8.0509    0.0000 </r>
       <r>    8.1081    0.0000 </r>
       <r>    8.2337    0.0000 </r>
       <r>    8.2863    0.0000 </r>
       <r>    8.3159    0.0000 </r>
       <r>    8.3991    0.0000 </r>
       <r>    8.6754    0.0000 </r>
       <r>    8.6910    0.0000 </r>
       <r>    8.7448    0.0000 </r>
       <r>    8.7486    0.0000 </r>
       <r>    8.7774    0.0000 </r>
       <r>    8.7777    0.0000 </r>
       <r>    8.8915    0.0000 </r>
       <r>    8.8995    0.0000 </r>
       <r>    9.1708    0.0000 </r>
       <r>    9.1796    0.0000 </r>
       <r>    9.3359    0.0000 </r>
       <r>    9.4298    0.0000 </r>
       <r>    9.4404    0.0000 </r>
       <r>    9.4660    0.0000 </r>
      </set>
      <set comment="kpoint 3">
       <r>  -40.1384    1.0000 </r>
       <r>  -40.1359    1.0000 </r>
       <r>  -39.8540    1.0000 </r>
       <r>  -39.8393    1.0000 </r>
       <r>  -39.5714    1.0000 </r>
       <r>  -39.5692    1.0000 </r>
       <r>  -18.9543    1.0000 </r>
       <r>  -18.9495    1.0000 </r>
       <r>  -18.8841    1.0000 </r>
       <r>  -18.8808    1.0000 </r>
       <r>  -18.8769    1.0000 </r>
       <r>  -18.8737    1.0000 </r>
       <r>  -18.7848    1.0000 </r>
       <r>  -18.7808    1.0000 </r>
       <r>  -18.7621    1.0000 </r>
       <r>  -18.7579    1.0000 </r>
       <r>  -18.7539    1.0000 </r>
       <r>  -18.7529    1.0000 </r>
       <r>  -18.7445    1.0000 </r>
       <r>  -18.7436    1.0000 </r>
       <r>  -18.7379    1.0000 </r>
       <r>  -18.7368    1.0000 </r>
       <r>  -18.6875    1.0000 </r>
       <r>  -18.6847    1.0000 </r>
       <r>  -18.6814    1.0000 </r>
       <r>  -18.6792    1.0000 </r>
       <r>  -18.6790    1.0000 </r>
       <r>  -18.6773    1.0000 </r>
       <r>  -18.6725    1.0000 </r>
       <r>  -18.6696    1.0000 </r>
       <r>  -18.6695    1.0000 </r>
       <r>  -18.6683    1.0000 </r>
       <r>  -18.6654    1.0000 </r>
       <r>  -18.6619    1.0000 </r>
       <r>  -18.6614    1.0000 </r>
       <r>  -18.6600    1.0000 </r>
       <r>  -18.6597    1.0000 </r>
       <r>  -18.6580    1.0000 </r>
       <r>  -18.6556    1.0000 </r>
       <r>  -18.6542    1.0000 </r>
       <r>  -18.6535    1.0000 </r>
       <r>  -18.6489    1.0000 </r>
       <r>  -18.6431    1.0000 </r>
       <r>  -18.6419    1.0000 </r>
       <r>  -18.6371    1.0000 </r>
       <r>  -18.6359    1.0000 </r>
       <r>  -18.6054    1.0000 </r>
       <r>  -18.6022    1.0000 </r>
       <r>  -18.5991    1.0000 </r>
       <r>  -18.5976    1.0000 </r>
       <r>  -18.5919    1.0000 </r>
       <r>  -18.5890    1.0000 </r>
       <r>  -18.5826    1.0000 </r>
       <r>  -18.5813    1.0000 </r>
       <r>  -18.5800    1.0000 </r>
       <r>  -18.5784    1.0000 </r>
       <r>  -18.5349    1.0000 </r>
       <r>  -18.5308    1.0000 </r>
       <r>  -18.5191    1.0000 </r>
       <r>  -18.5161    1.0000 </r>
       <r>  -18.5153    1.0000 </r>
       <r>  -18.5149    1.0000 </r>
       <r>  -18.5144    1.0000 </r>
       <r>  -18.5142    1.0000 </r>
       <r>  -18.5138    1.0000 </r>
       <r>  -18.5117    1.0000 </r>
       <r>  -18.5087    1.0000 </r>
       <r>  -18.5052    1.0000 </r>
       <r>  -18.4847    1.0000 </r>
       <r>  -18.4835    1.0000 </r>
       <r>  -18.4791    1.0000 </r>
       <r>  -18.4770    1.0000 </r>
       <r>  -18.4506    1.0000 </r>
       <r>  -18.4465    1.0000 </r>
       <r>  -18.4308    1.0000 </r>
       <r>  -18.4267    1.0000 </r>
       <r>  -18.4235    1.0000 </r>
       <r>  -18.4183    1.0000 </r>
       <r>  -18.4110    1.0000 </r>
       <r>  -18.4058    1.0000 </r>
       <r>  -18.3336    1.0000 </r>
       <r>  -18.3271    1.0000 </r>
       <r>  -18.2249    1.0000 </r>
       <r>  -18.2187    1.0000 </r>
       <r>  -18.1971    1.0000 </r>
       <r>  -18.1910    1.0000 </r>
       <r>  -13.5899    1.0000 </r>
       <r>  -13.4918    1.0000 </r>
       <r>  -12.9351    1.0000 </r>
       <r>  -12.8375    1.0000 </r>
       <r>  -12.8345    1.0000 </r>
       <r>  -12.8019    1.0000 </r>
       <r>  -12.7468    1.0000 </r>
       <r>  -12.7432    1.0000 </r>
       <r>  -12.7134    1.0000 </r>
       <r>  -12.6980    1.0000 </r>
       <r>  -12.6657    1.0000 </r>
       <r>  -12.6376    1.0000 </r>
       <r>  -12.6298    1.0000 </r>
       <r>  -12.5989    1.0000 </r>
       <r>  -12.0248    1.0000 </r>
       <r>  -11.9462    1.0000 </r>
       <r>   -9.3482    1.0000 </r>
       <r>   -9.0712    1.0000 </r>
       <r>   -8.5802    1.0000 </r>
       <r>   -8.5495    1.0000 </r>
       <r>   -8.5343    1.0000 </r>
       <r>   -8.4910    1.0000 </r>
       <r>   -8.3190    1.0000 </r>
       <r>   -8.2932    1.0000 </r>
       <r>   -8.2695    1.0000 </r>
       <r>   -8.2315    1.0000 </r>
       <r>   -8.0652    1.0000 </r>
       <r>   -8.0637    1.0000 </r>
       <r>   -8.0259    1.0000 </r>
       <r>   -8.0241    1.0000 </r>
       <r>   -7.3903    1.0000 </r>
       <r>   -7.3898    1.0000 </r>
       <r>   -6.3944    1.0000 </r>
       <r>   -6.3913    1.0000 </r>
       <r>   -6.3571    1.0000 </r>
       <r>   -6.3534    1.0000 </r>
       <r>   -5.5719    1.0000 </r>
       <r>   -5.5032    1.0000 </r>
       <r>   -5.4347    1.0000 </r>
       <r>   -5.4098    1.0000 </r>
       <r>   -5.4092    1.0000 </r>
       <r>   -5.2994    1.0000 </r>
       <r>   -5.1837    1.0000 </r>
       <r>   -5.1381    1.0000 </r>
       <r>   -5.1113    1.0000 </r>
       <r>   -5.0388    1.0000 </r>
       <r>   -3.9132    1.0000 </r>
       <r>   -3.6004    1.0000 </r>
       <r>   -1.4155    1.0000 </r>
       <r>   -1.3203    1.0000 </r>
       <r>   -1.2738    1.0000 </r>
       <r>   -1.0546    1.0000 </r>
       <r>   -0.4772    1.0000 </r>
       <r>   -0.4740    1.0000 </r>
       <r>   -0.4375    1.0000 </r>
       <r>   -0.4190    1.0000 </r>
       <r>   -0.4159    1.0000 </r>
       <r>   -0.3675    1.0000 </r>
       <r>   -0.3145    1.0000 </r>
       <r>   -0.2807    1.0000 </r>
       <r>   -0.1678    1.0000 </r>
       <r>   -0.0494    1.0000 </r>
       <r>    0.0639    1.0000 </r>
       <r>    0.2278    1.0000 </r>
       <r>    0.2303    1.0000 </r>
       <r>    0.3011    1.0000 </r>
       <r>    0.4009    1.0000 </r>
       <r>    0.4618    1.0000 </r>
       <r>    0.4651    1.0000 </r>
       <r>    0.4877    1.0000 </r>
       <r>    0.5514    1.0000 </r>
       <r>    0.6926    1.0000 </r>
       <r>    0.7106    1.0000 </r>
       <r>    0.8051    1.0000 </r>
       <r>    0.8179    1.0000 </r>
       <r>    0.8607    1.0000 </r>
       <r>    0.9376    1.0000 </r>
       <r>    1.0065    1.0000 </r>
       <r>    1.0793    1.0000 </r>
       <r>    1.0841    1.0000 </r>
       <r>    1.2173    1.0000 </r>
       <r>    1.2521    1.0000 </r>
       <r>    1.3414    1.0000 </r>
       <r>    1.4183    1.0000 </r>
       <r>    1.4205    1.0000 </r>
       <r>    1.4887    1.0000 </r>
       <r>    1.5530    1.0000 </r>
       <r>    1.5668    1.0000 </r>
       <r>    1.5978    1.0000 </r>
       <r>    1.6158    1.0000 </r>
       <r>    1.6726    1.0000 </r>
       <r>    1.7112    1.0000 </r>
       <r>    1.7212    1.0000 </r>
       <r>    1.7656    1.0000 </r>
       <r>    1.8026    1.0000 </r>
       <r>    1.8397    1.0000 </r>
       <r>    1.9834    1.0000 </r>
       <r>    2.0200    1.0000 </r>
       <r>    2.0480    1.0000 </r>
       <r>    2.1067    1.0000 </r>
       <r>    2.1349    1.0000 </r>
       <r>    2.2029    1.0000 </r>
       <r>    2.2544    1.0000 </r>
       <r>    2.2869    1.0000 </r>
       <r>    2.3904    1.0000 </r>
       <r>    2.4437    1.0000 </r>
       <r>    2.4818    1.0000 </r>
       <r>    2.5127    1.0000 </r>
       <r>    2.5194    1.0000 </r>
       <r>    2.5346    1.0000 </r>
       <r>    2.5410    1.0000 </r>
       <r>    2.5668    1.0000 </r>
       <r>    2.5762    1.0000 </r>
       <r>    2.5777    1.0000 </r>
       <r>    2.5936    1.0000 </r>
       <r>    2.7059    1.0000 </r>
       <r>    2.7225    1.0000 </r>
       <r>    2.7356    1.0000 </r>
       <r>    2.7693    1.0000 </r>
       <r>    2.8153    1.0000 </r>
       <r>    2.8443    1.0000 </r>
       <r>    2.8751    1.0000 </r>
       <r>    2.8876    1.0000 </r>
       <r>    2.9390    1.0000 </r>
       <r>    2.9438    1.0000 </r>
       <r>    2.9696    1.0000 </r>
       <r>    2.9782    1.0000 </r>
       <r>    2.9834    1.0000 </r>
       <r>    3.0186    1.0000 </r>
       <r>    3.1677    1.0000 </r>
       <r>    3.2178    1.0000 </r>
       <r>    3.3019    1.0000 </r>
       <r>    3.3071    1.0000 </r>
       <r>    3.3520    1.0000 </r>
       <r>    3.3583    1.0000 </r>
       <r>    3.4025    1.0000 </r>
       <r>    3.4226    1.0000 </r>
       <r>    3.5186    1.0000 </r>
       <r>    3.5341    1.0000 </r>
       <r>    3.7027    1.0000 </r>
       <r>    4.1938    1.0000 </r>
       <r>    4.1995    1.0000 </r>
       <r>    4.2569    1.0000 </r>
       <r>    4.2586    1.0000 </r>
       <r>    5.0577    0.0000 </r>
       <r>    5.0601    0.0000 </r>
       <r>    5.2308    0.0000 </r>
       <r>    5.2322    0.0000 </r>
       <r>    5.7061    0.0000 </r>
       <r>    5.7096    0.0000 </r>
       <r>    5.8215    0.0000 </r>
       <r>    5.8254    0.0000 </r>
       <r>    6.1300    0.0000 </r>
       <r>    6.1377    0.0000 </r>
       <r>    6.1557    0.0000 </r>
       <r>    6.1698    0.0000 </r>
       <r>    6.2187    0.0000 </r>
       <r>    6.2254    0.0000 </r>
       <r>    6.2513    0.0000 </r>
       <r>    6.2603    0.0000 </r>
       <r>    6.7265    0.0000 </r>
       <r>    6.7434    0.0000 </r>
       <r>    7.0327    0.0000 </r>
       <r>    7.0429    0.0000 </r>
       <r>    7.1360    0.0000 </r>
       <r>    7.2317    0.0000 </r>
       <r>    7.4235    0.0000 </r>
       <r>    7.4691    0.0000 </r>
       <r>    7.6170    0.0000 </r>
       <r>    7.8013    0.0000 </r>
       <r>    7.9047    0.0000 </r>
       <r>    7.9519    0.0000 </r>
       <r>    7.9712    0.0000 </r>
       <r>    8.2975    0.0000 </r>
       <r>    8.3367    0.0000 </r>
       <r>    8.4116    0.0000 </r>
       <r>    8.6237    0.0000 </r>
       <r>    8.7516    0.0000 </r>
       <r>    8.9132    0.0000 </r>
       <r>    8.9383    0.0000 </r>
       <r>    8.9999    0.0000 </r>
       <r>    9.0334    0.0000 </r>
       <r>    9.0405    0.0000 </r>
       <r>    9.0607    0.0000 </r>
       <r>    9.0715    0.0000 </r>
       <r>    9.1013    0.0000 </r>
       <r>    9.1406    0.0000 </r>
       <r>    9.1620    0.0000 </r>
       <r>    9.4340    0.0000 </r>
       <r>    9.4557    0.0000 </r>
       <r>    9.5716    0.0000 </r>
       <r>    9.7018    0.0000 </r>
       <r>    9.7141    0.0000 </r>
       <r>    9.8179    0.0000 </r>
      </set>
      <set comment="kpoint 4">
       <r>  -40.1384    1.0000 </r>
       <r>  -40.1359    1.0000 </r>
       <r>  -39.8540    1.0000 </r>
       <r>  -39.8392    1.0000 </r>
       <r>  -39.5714    1.0000 </r>
       <r>  -39.5692    1.0000 </r>
       <r>  -18.9543    1.0000 </r>
       <r>  -18.9495    1.0000 </r>
       <r>  -18.8840    1.0000 </r>
       <r>  -18.8807    1.0000 </r>
       <r>  -18.8769    1.0000 </r>
       <r>  -18.8737    1.0000 </r>
       <r>  -18.7848    1.0000 </r>
       <r>  -18.7808    1.0000 </r>
       <r>  -18.7621    1.0000 </r>
       <r>  -18.7580    1.0000 </r>
       <r>  -18.7540    1.0000 </r>
       <r>  -18.7530    1.0000 </r>
       <r>  -18.7444    1.0000 </r>
       <r>  -18.7436    1.0000 </r>
       <r>  -18.7379    1.0000 </r>
       <r>  -18.7368    1.0000 </r>
       <r>  -18.6871    1.0000 </r>
       <r>  -18.6839    1.0000 </r>
       <r>  -18.6813    1.0000 </r>
       <r>  -18.6799    1.0000 </r>
       <r>  -18.6794    1.0000 </r>
       <r>  -18.6777    1.0000 </r>
       <r>  -18.6726    1.0000 </r>
       <r>  -18.6697    1.0000 </r>
       <r>  -18.6696    1.0000 </r>
       <r>  -18.6684    1.0000 </r>
       <r>  -18.6641    1.0000 </r>
       <r>  -18.6619    1.0000 </r>
       <r>  -18.6617    1.0000 </r>
       <r>  -18.6607    1.0000 </r>
       <r>  -18.6589    1.0000 </r>
       <r>  -18.6581    1.0000 </r>
       <r>  -18.6567    1.0000 </r>
       <r>  -18.6539    1.0000 </r>
       <r>  -18.6536    1.0000 </r>
       <r>  -18.6487    1.0000 </r>
       <r>  -18.6426    1.0000 </r>
       <r>  -18.6423    1.0000 </r>
       <r>  -18.6368    1.0000 </r>
       <r>  -18.6360    1.0000 </r>
       <r>  -18.6053    1.0000 </r>
       <r>  -18.6021    1.0000 </r>
       <r>  -18.5991    1.0000 </r>
       <r>  -18.5976    1.0000 </r>
       <r>  -18.5920    1.0000 </r>
       <r>  -18.5890    1.0000 </r>
       <r>  -18.5826    1.0000 </r>
       <r>  -18.5813    1.0000 </r>
       <r>  -18.5800    1.0000 </r>
       <r>  -18.5784    1.0000 </r>
       <r>  -18.5349    1.0000 </r>
       <r>  -18.5308    1.0000 </r>
       <r>  -18.5191    1.0000 </r>
       <r>  -18.5162    1.0000 </r>
       <r>  -18.5151    1.0000 </r>
       <r>  -18.5150    1.0000 </r>
       <r>  -18.5144    1.0000 </r>
       <r>  -18.5142    1.0000 </r>
       <r>  -18.5138    1.0000 </r>
       <r>  -18.5117    1.0000 </r>
       <r>  -18.5086    1.0000 </r>
       <r>  -18.5052    1.0000 </r>
       <r>  -18.4847    1.0000 </r>
       <r>  -18.4835    1.0000 </r>
       <r>  -18.4791    1.0000 </r>
       <r>  -18.4770    1.0000 </r>
       <r>  -18.4506    1.0000 </r>
       <r>  -18.4465    1.0000 </r>
       <r>  -18.4308    1.0000 </r>
       <r>  -18.4267    1.0000 </r>
       <r>  -18.4235    1.0000 </r>
       <r>  -18.4183    1.0000 </r>
       <r>  -18.4110    1.0000 </r>
       <r>  -18.4058    1.0000 </r>
       <r>  -18.3336    1.0000 </r>
       <r>  -18.3271    1.0000 </r>
       <r>  -18.2249    1.0000 </r>
       <r>  -18.2187    1.0000 </r>
       <r>  -18.1971    1.0000 </r>
       <r>  -18.1910    1.0000 </r>
       <r>  -13.5887    1.0000 </r>
       <r>  -13.4931    1.0000 </r>
       <r>  -12.9312    1.0000 </r>
[...]
       <r>    8.8074    0.0000 </r>
       <r>    8.8230    0.0000 </r>
       <r>    8.8392    0.0000 </r>
       <r>    8.8799    0.0000 </r>
       <r>    8.8972    0.0000 </r>
       <r>    8.9168    0.0000 </r>
       <r>    8.9459    0.0000 </r>
       <r>    9.6365    0.0000 </r>
       <r>    9.8472    0.0000 </r>
      </set>
     </set>
    </set>
   </array>
  </eigenvalues>
  <separator name="orbital magnetization" >
   <v name="MAGDIPOLOUT">      0.00000000      0.00000000      0.00000000</v>
  </separator>
  <dos>
   <i name="efermi">      4.27091768 </i>
   <total>
    <array>
     <dimension dim="1">gridpoints</dimension>
     <dimension dim="2">spin</dimension>
     <field>energy</field>
     <field>total</field>
     <field>integrated</field>
     <set>
      <set comment="spin 1">
       <r>   -42.6526     0.0000     0.0000 </r>
       <r>   -42.4683     0.0000     0.0000 </r>
       <r>   -42.2839     0.0000     0.0000 </r>
       <r>   -42.0995     0.0000     0.0000 </r>
       <r>   -41.9151     0.0000     0.0000 </r>
       <r>   -41.7308     0.0000     0.0000 </r>
       <r>   -41.5464     0.0000     0.0000 </r>
       <r>   -41.3620     0.0000     0.0000 </r>
       <r>   -41.1776     0.0000     0.0000 </r>
       <r>   -40.9932     0.0000     0.0000 </r>
       <r>   -40.8089     0.0000     0.0000 </r>
       <r>   -40.6245     0.0000     0.0000 </r>
       <r>   -40.4401     0.0000     0.0000 </r>
       <r>   -40.2557     0.0000     0.0000 </r>
       <r>   -40.0714     0.0000     4.0000 </r>
       <r>   -39.8870     0.0000     4.0000 </r>
       <r>   -39.7026     0.0000     8.0000 </r>
       <r>   -39.5182     0.0000    12.0000 </r>
       <r>   -39.3339     0.0000    12.0000 </r>
       <r>   -39.1495     0.0000    12.0000 </r>
       <r>   -38.9651     0.0000    12.0000 </r>
       <r>   -38.7807     0.0000    12.0000 </r>
       <r>   -38.5964     0.0000    12.0000 </r>
       <r>   -38.4120     0.0000    12.0000 </r>
       <r>   -38.2276     0.0000    12.0000 </r>
       <r>   -38.0432     0.0000    12.0000 </r>
       <r>   -37.8589     0.0000    12.0000 </r>
       <r>   -37.6745     0.0000    12.0000 </r>
       <r>   -37.4901     0.0000    12.0000 </r>
       <r>   -37.3057     0.0000    12.0000 </r>
       <r>   -37.1214     0.0000    12.0000 </r>
       <r>   -36.9370     0.0000    12.0000 </r>
       <r>   -36.7526     0.0000    12.0000 </r>
       <r>   -36.5682     0.0000    12.0000 </r>
       <r>   -36.3839     0.0000    12.0000 </r>
       <r>   -36.1995     0.0000    12.0000 </r>
       <r>   -36.0151     0.0000    12.0000 </r>
       <r>   -35.8307     0.0000    12.0000 </r>
       <r>   -35.6464     0.0000    12.0000 </r>
       <r>   -35.4620     0.0000    12.0000 </r>
       <r>   -35.2776     0.0000    12.0000 </r>
       <r>   -35.0932     0.0000    12.0000 </r>
       <r>   -34.9089     0.0000    12.0000 </r>
       <r>   -34.7245     0.0000    12.0000 </r>
       <r>   -34.5401     0.0000    12.0000 </r>
       <r>   -34.3557     0.0000    12.0000 </r>
       <r>   -34.1714     0.0000    12.0000 </r>
       <r>   -33.9870     0.0000    12.0000 </r>
       <r>   -33.8026     0.0000    12.0000 </r>
       <r>   -33.6182     0.0000    12.0000 </r>
       <r>   -33.4339     0.0000    12.0000 </r>
       <r>   -33.2495     0.0000    12.0000 </r>
       <r>   -33.0651     0.0000    12.0000 </r>
       <r>   -32.8807     0.0000    12.0000 </r>
       <r>   -32.6964     0.0000    12.0000 </r>
       <r>   -32.5120     0.0000    12.0000 </r>
       <r>   -32.3276     0.0000    12.0000 </r>
       <r>   -32.1432     0.0000    12.0000 </r>
       <r>   -31.9589     0.0000    12.0000 </r>
       <r>   -31.7745     0.0000    12.0000 </r>
       <r>   -31.5901     0.0000    12.0000 </r>
       <r>   -31.4057     0.0000    12.0000 </r>
       <r>   -31.2214     0.0000    12.0000 </r>
       <r>   -31.0370     0.0000    12.0000 </r>
       <r>   -30.8526     0.0000    12.0000 </r>
       <r>   -30.6682     0.0000    12.0000 </r>
       <r>   -30.4839     0.0000    12.0000 </r>
       <r>   -30.2995     0.0000    12.0000 </r>
       <r>   -30.1151     0.0000    12.0000 </r>
       <r>   -29.9307     0.0000    12.0000 </r>
       <r>   -29.7463     0.0000    12.0000 </r>
       <r>   -29.5620     0.0000    12.0000 </r>
       <r>   -29.3776     0.0000    12.0000 </r>
       <r>   -29.1932     0.0000    12.0000 </r>
       <r>   -29.0088     0.0000    12.0000 </r>
       <r>   -28.8245     0.0000    12.0000 </r>
       <r>   -28.6401     0.0000    12.0000 </r>
       <r>   -28.4557     0.0000    12.0000 </r>
       <r>   -28.2713     0.0000    12.0000 </r>
       <r>   -28.0870     0.0000    12.0000 </r>
       <r>   -27.9026     0.0000    12.0000 </r>
       <r>   -27.7182     0.0000    12.0000 </r>
       <r>   -27.5338     0.0000    12.0000 </r>
       <r>   -27.3495     0.0000    12.0000 </r>
       <r>   -27.1651     0.0000    12.0000 </r>
       <r>   -26.9807     0.0000    12.0000 </r>
       <r>   -26.7963     0.0000    12.0000 </r>
       <r>   -26.6120     0.0000    12.0000 </r>
       <r>   -26.4276     0.0000    12.0000 </r>
       <r>   -26.2432     0.0000    12.0000 </r>
       <r>   -26.0588     0.0000    12.0000 </r>
       <r>   -25.8745     0.0000    12.0000 </r>
       <r>   -25.6901     0.0000    12.0000 </r>
       <r>   -25.5057     0.0000    12.0000 </r>
       <r>   -25.3213     0.0000    12.0000 </r>
       <r>   -25.1370     0.0000    12.0000 </r>
       <r>   -24.9526     0.0000    12.0000 </r>
       <r>   -24.7682     0.0000    12.0000 </r>
       <r>   -24.5838     0.0000    12.0000 </r>
       <r>   -24.3995     0.0000    12.0000 </r>
       <r>   -24.2151     0.0000    12.0000 </r>
       <r>   -24.0307     0.0000    12.0000 </r>
       <r>   -23.8463     0.0000    12.0000 </r>
       <r>   -23.6620     0.0000    12.0000 </r>
       <r>   -23.4776     0.0000    12.0000 </r>
       <r>   -23.2932     0.0000    12.0000 </r>
       <r>   -23.1088     0.0000    12.0000 </r>
       <r>   -22.9245     0.0000    12.0000 </r>
       <r>   -22.7401     0.0000    12.0000 </r>
       <r>   -22.5557     0.0000    12.0000 </r>
       <r>   -22.3713     0.0000    12.0000 </r>
       <r>   -22.1870     0.0000    12.0000 </r>
       <r>   -22.0026     0.0000    12.0000 </r>
       <r>   -21.8182     0.0000    12.0000 </r>
       <r>   -21.6338     0.0000    12.0000 </r>
       <r>   -21.4495     0.0000    12.0000 </r>
       <r>   -21.2651     0.0000    12.0000 </r>
       <r>   -21.0807     0.0000    12.0000 </r>
       <r>   -20.8963     0.0000    12.0000 </r>
       <r>   -20.7120     0.0000    12.0000 </r>
       <r>   -20.5276     0.0000    12.0000 </r>
       <r>   -20.3432     0.0000    12.0000 </r>
       <r>   -20.1588     0.0000    12.0000 </r>
       <r>   -19.9745     0.0000    12.0000 </r>
       <r>   -19.7901     0.0000    12.0000 </r>
       <r>   -19.6057     0.0000    12.0000 </r>
       <r>   -19.4213     0.0000    12.0000 </r>
       <r>   -19.2369     0.0000    12.0000 </r>
       <r>   -19.0526     0.0000    12.0000 </r>
       <r>   -18.8682     0.0000    24.0000 </r>
       <r>   -18.6838     0.0000    48.0000 </r>
       <r>   -18.4994     0.0000   136.0000 </r>
       <r>   -18.3151     0.0000   164.0000 </r>
       <r>   -18.1307     0.0000   172.0000 </r>
       <r>   -17.9463     0.0000   172.0000 </r>
       <r>   -17.7619     0.0000   172.0000 </r>
       <r>   -17.5776     0.0000   172.0000 </r>
       <r>   -17.3932     0.0000   172.0000 </r>
       <r>   -17.2088     0.0000   172.0000 </r>
       <r>   -17.0244     0.0000   172.0000 </r>
       <r>   -16.8401     0.0000   172.0000 </r>
       <r>   -16.6557     0.0000   172.0000 </r>
       <r>   -16.4713     0.0000   172.0000 </r>
       <r>   -16.2869     0.0000   172.0000 </r>
       <r>   -16.1026     0.0000   172.0000 </r>
       <r>   -15.9182     0.0000   172.0000 </r>
       <r>   -15.7338     0.0000   172.0000 </r>
       <r>   -15.5494     0.0000   172.0000 </r>
       <r>   -15.3651     0.0000   172.0000 </r>
       <r>   -15.1807     0.0000   172.0000 </r>
       <r>   -14.9963     0.0000   172.0000 </r>
       <r>   -14.8119     0.0000   172.0000 </r>
       <r>   -14.6276     0.0000   172.0000 </r>
       <r>   -14.4432     0.0000   172.0000 </r>
       <r>   -14.2588     0.0000   172.0000 </r>
       <r>   -14.0744     0.0000   172.0000 </r>
       <r>   -13.8901     0.0000   172.0000 </r>
       <r>   -13.7057     0.0000   172.0000 </r>
       <r>   -13.5213     0.0000   174.0000 </r>
       <r>   -13.3369     0.0000   176.0000 </r>
       <r>   -13.1526     0.0000   176.0000 </r>
       <r>   -12.9682     0.0000   176.0000 </r>
       <r>   -12.7838     0.0000   184.0000 </r>
       <r>   -12.5994   853.3818   199.2344 </r>
       <r>   -12.4151     0.0000   200.0000 </r>
       <r>   -12.2307     0.0000   200.0000 </r>
       <r>   -12.0463     0.0000   200.0000 </r>
       <r>   -11.8619     0.0000   204.0000 </r>
       <r>   -11.6776     0.0000   204.0000 </r>
       <r>   -11.4932     0.0000   204.0000 </r>
       <r>   -11.3088     0.0000   204.0000 </r>
       <r>   -11.1244     0.0000   204.0000 </r>
       <r>   -10.9401     0.0000   204.0000 </r>
       <r>   -10.7557     0.0000   204.0000 </r>
       <r>   -10.5713     0.0000   204.0000 </r>
       <r>   -10.3869     0.0000   204.0000 </r>
       <r>   -10.2026     0.0000   204.0000 </r>
       <r>   -10.0182     0.0000   204.0000 </r>
       <r>    -9.8338     0.0000   204.0000 </r>
       <r>    -9.6494     0.0000   204.0000 </r>
       <r>    -9.4651     0.0000   204.0000 </r>
       <r>    -9.2807     5.3974   204.1971 </r>
       <r>    -9.0963    20.0827   206.1332 </r>
       <r>    -8.9119     9.5822   208.1172 </r>
       <r>    -8.7275    12.8553   211.0050 </r>
       <r>    -8.5432    17.0671   213.4236 </r>
       <r>    -8.3588    21.2677   218.2726 </r>
       <r>    -8.1744    17.8926   221.4404 </r>
       <r>    -7.9900    22.4125   226.2059 </r>
       <r>    -7.8057    15.7096   229.6424 </r>
       <r>    -7.6213    22.0630   233.0045 </r>
       <r>    -7.4369     5.5040   235.8669 </r>
       <r>    -7.2525     0.0000   236.0000 </r>
       <r>    -7.0682     0.0000   236.0000 </r>
       <r>    -6.8838     0.0000   236.0000 </r>
       <r>    -6.6994     0.0000   236.0000 </r>
       <r>    -6.5150     0.0000   236.0000 </r>
       <r>    -6.3307     5.1246   236.1520 </r>
       <r>    -6.1463    23.0842   238.7517 </r>
       <r>    -5.9619    17.5735   243.0349 </r>
       <r>    -5.7775    30.9518   247.0196 </r>
       <r>    -5.5932    22.2870   251.6800 </r>
       <r>    -5.4088    20.6092   255.5352 </r>
       <r>    -5.2244    12.8631   258.7570 </r>
       <r>    -5.0400     3.6394   260.0706 </r>
       <r>    -4.8557     7.6060   261.1746 </r>
       <r>    -4.6713     9.2247   262.6706 </r>
       <r>    -4.4869     8.0983   264.4554 </r>
       <r>    -4.3025     6.9487   265.6733 </r>
       <r>    -4.1182     5.7557   266.9431 </r>
       <r>    -3.9338     2.5141   267.7044 </r>
       <r>    -3.7494     0.6840   267.9619 </r>
       <r>    -3.5650     0.0000   268.0000 </r>
       <r>    -3.3807     0.0000   268.0000 </r>
       <r>    -3.1963     0.0000   268.0000 </r>
       <r>    -3.0119     0.0000   268.0000 </r>
       <r>    -2.8275     0.0000   268.0000 </r>
       <r>    -2.6432     0.0000   268.0000 </r>
       <r>    -2.4588     0.0000   268.0000 </r>
       <r>    -2.2744     0.0000   268.0000 </r>
       <r>    -2.0900     0.0000   268.0000 </r>
       <r>    -1.9057     0.0000   268.0000 </r>
       <r>    -1.7213     0.0000   268.0000 </r>
       <r>    -1.5369     0.0000   268.0000 </r>
       <r>    -1.3525     2.8393   268.1856 </r>
       <r>    -1.1682    10.8708   269.4241 </r>
       <r>    -0.9838    12.5846   271.4978 </r>
       <r>    -0.7994     9.9564   273.8226 </r>
       <r>    -0.6150     5.1528   275.1705 </r>
       <r>    -0.4307    19.3458   277.0048 </r>
       <r>    -0.2463    23.2387   280.9761 </r>
       <r>    -0.0619    43.1228   287.0943 </r>
       <r>     0.1225    34.0731   294.1118 </r>
       <r>     0.3068    41.8877   299.8307 </r>
       <r>     0.4912    46.4616   307.0008 </r>
       <r>     0.6756    40.9964   314.8659 </r>
       <r>     0.8600    20.9326   320.8621 </r>
       <r>     1.0443    58.2526   329.3622 </r>
       <r>     1.2287    39.0883   337.7804 </r>
       <r>     1.4131    39.1973   345.3805 </r>
       <r>     1.5975    59.4728   356.1503 </r>
       <r>     1.7818    37.6019   364.9573 </r>
       <r>     1.9662    36.4160   371.9276 </r>
       <r>     2.1506    44.8791   379.5926 </r>
       <r>     2.3350    52.2769   387.9267 </r>
       <r>     2.5194    51.5799   398.3163 </r>
       <r>     2.7037    67.9837   409.4560 </r>
       <r>     2.8881    70.4334   420.9716 </r>
       <r>     3.0725    51.0111   433.5783 </r>
       <r>     3.2569    32.6824   441.4348 </r>
       <r>     3.4412    39.8227   448.2716 </r>
       <r>     3.6256    16.2396   453.5593 </r>
       <r>     3.8100    17.8834   456.2834 </r>
       <r>     3.9944     9.4363   458.9504 </r>
       <r>     4.1787     1.5903   459.9549 </r>
       <r>     4.3631     0.0000   460.0000 </r>
       <r>     4.5475     0.0000   460.0000 </r>
       <r>     4.7319     0.0000   460.0000 </r>
       <r>     4.9162     0.0000   460.0000 </r>
       <r>     5.1006     0.7729   460.0340 </r>
       <r>     5.2850     3.6008   460.3853 </r>
       <r>     5.4694     7.7186   461.4286 </r>
       <r>     5.6537     9.6586   463.1214 </r>
       <r>     5.8381    26.0908   466.6005 </r>
       <r>     6.0225    12.8535   469.5383 </r>
       <r>     6.2069    11.5656   471.7365 </r>
       <r>     6.3912    13.2140   474.0042 </r>
       <r>     6.5756    15.0669   476.6117 </r>
       <r>     6.7600    16.9317   479.5599 </r>
       <r>     6.9444    19.9991   482.9303 </r>
       <r>     7.1287    26.0782   487.1155 </r>
       <r>     7.3131    35.7811   492.8412 </r>
       <r>     7.4975    29.5088   500.1730 </r>
       <r>     7.6819    37.6112   505.3032 </r>
       <r>     7.8662    53.1879   514.1539 </r>
       <r>     8.0506    27.7979   521.7190 </r>
       <r>     8.2350    18.3711   525.6692 </r>
       <r>     8.4194    20.3054   529.1480 </r>
       <r>     8.6037    24.6473   533.3291 </r>
       <r>     8.7881    52.1405   538.8964 </r>
       <r>     8.9725    29.7967   546.5923 </r>
       <r>     9.1569    17.1576   550.7712 </r>
       <r>     9.3412    13.6672   553.6060 </r>
       <r>     9.5256    11.3649   556.0365 </r>
       <r>     9.7100    14.5471   558.2997 </r>
       <r>     9.8944     3.1098   559.7394 </r>
       <r>    10.0787     0.2211   559.9951 </r>
       <r>    10.2631     0.0000   560.0000 </r>
       <r>    10.4475     0.0000   560.0000 </r>
       <r>    10.6319     0.0000   560.0000 </r>
       <r>    10.8162     0.0000   560.0000 </r>
       <r>    11.0006     0.0000   560.0000 </r>
       <r>    11.1850     0.0000   560.0000 </r>
       <r>    11.3694     0.0000   560.0000 </r>
       <r>    11.5537     0.0000   560.0000 </r>
       <r>    11.7381     0.0000   560.0000 </r>
       <r>    11.9225     0.0000   560.0000 </r>
       <r>    12.1069     0.0000   560.0000 </r>
       <r>    12.2912     0.0000   560.0000 </r>
       <r>    12.4756     0.0000   560.0000 </r>
       <r>    12.6600     0.0000   560.0000 </r>
      </set>
     </set>
    </array>
   </total>
  </dos>
 </calculation>
 <structure name="finalpos" >
  <crystal>
   <varray name="basis" >
    <v>      11.17850000       0.00000000       0.00000000 </v>
    <v>       0.00000000       9.57460000       0.00000000 </v>
    <v>       0.00000000       0.00000000      11.18240000 </v>
   </varray>
   <i name="volume">   1196.84853820 </i>
   <varray name="rec_basis" >
    <v>       0.08945744       0.00000000       0.00000000 </v>
    <v>       0.00000000       0.10444301       0.00000000 </v>
    <v>       0.00000000       0.00000000       0.08942624 </v>
   </varray>
  </crystal>
  <varray name="positions" >
   <v>       0.37539000       0.00017000       0.43687000 </v>
   <v>       0.62539000       0.99984000       0.43687000 </v>
   <v>       0.87539000       0.00017000       0.43687000 </v>
   <v>       0.37461000       0.00017000       0.68687000 </v>
   <v>       0.62461000       0.99984000       0.68687000 </v>
   <v>       0.87461000       0.00017000       0.68687000 </v>
   <v>       0.12461000       0.99984000       0.18687000 </v>
   <v>       0.62461000       0.99984000       0.18687000 </v>
   <v>       0.37539000       0.00017000       0.93687000 </v>
   <v>       0.12461000       0.99984000       0.68687000 </v>
   <v>       0.87539000       0.00017000       0.93687000 </v>
   <v>       0.00013000       0.29519000       0.06281000 </v>
   <v>       0.25013000       0.70481000       0.06281000 </v>
   <v>       0.24987000       0.29519000       0.31282000 </v>
   <v>       0.49987000       0.70481000       0.31282000 </v>
   <v>       0.50013000       0.29519000       0.06281000 </v>
   <v>       0.75013000       0.70481000       0.06281000 </v>
   <v>       0.74987000       0.29519000       0.31282000 </v>
   <v>       0.99987000       0.70481000       0.31282000 </v>
   <v>       0.00013000       0.29519000       0.56281000 </v>
   <v>       0.25013000       0.70481000       0.56281000 </v>
   <v>       0.24987000       0.29519000       0.81282000 </v>
   <v>       0.49987000       0.70481000       0.81282000 </v>
   <v>       0.50013000       0.29519000       0.56281000 </v>
   <v>       0.75013000       0.70481000       0.56281000 </v>
   <v>       0.74987000       0.29519000       0.81282000 </v>
   <v>       0.99987000       0.70481000       0.81282000 </v>
   <v>       0.25005000       0.32677000       0.06286000 </v>
   <v>       0.00005000       0.67323000       0.06286000 </v>
   <v>       0.49995000       0.32677000       0.31286000 </v>
   <v>       0.24995000       0.67323000       0.31286000 </v>
   <v>       0.75005000       0.32677000       0.06286000 </v>
   <v>       0.50005000       0.67323000       0.06286000 </v>
   <v>       0.99995000       0.32677000       0.31286000 </v>
   <v>       0.74995000       0.67323000       0.31286000 </v>
   <v>       0.25005000       0.32677000       0.56286000 </v>
   <v>       0.00005000       0.67323000       0.56286000 </v>
   <v>       0.49995000       0.32677000       0.81286000 </v>
   <v>       0.24995000       0.67323000       0.81286000 </v>
   <v>       0.75005000       0.32677000       0.56286000 </v>
   <v>       0.50005000       0.67323000       0.56286000 </v>
   <v>       0.99995000       0.32677000       0.81286000 </v>
   <v>       0.74995000       0.67323000       0.81286000 </v>
   <v>       0.49987000       0.07798000       0.06246000 </v>
   <v>       0.24987000       0.92202000       0.06246000 </v>
   <v>       0.25013000       0.07798000       0.31246000 </v>
   <v>       0.00013000       0.92202000       0.31246000 </v>
   <v>       0.99987000       0.07798000       0.06246000 </v>
   <v>       0.74987000       0.92202000       0.06246000 </v>
   <v>       0.75013000       0.07798000       0.31246000 </v>
   <v>       0.50013000       0.92202000       0.31246000 </v>
   <v>       0.49987000       0.07798000       0.56246000 </v>
   <v>       0.24987000       0.92202000       0.56246000 </v>
   <v>       0.25013000       0.07798000       0.81246000 </v>
   <v>       0.00013000       0.92202000       0.81246000 </v>
   <v>       0.99987000       0.07798000       0.56246000 </v>
   <v>       0.74987000       0.92202000       0.56246000 </v>
   <v>       0.75013000       0.07798000       0.81246000 </v>
   <v>       0.50013000       0.92202000       0.81246000 </v>
  </varray>
 </structure>
</modeling>
