<?xml version="1.0" encoding="ISO-8859-1"?>
<modeling>
 <generator>
  <i name="program" type="string">vasp </i>
  <i name="version" type="string">5.4.4.18Apr17-6-g9f103f2a35  </i>
  <i name="subversion" type="string">(build Jul 31 2017 11:33:29) complex            parallel </i>
  <i name="platform" type="string">LinuxIFC </i>
  <i name="date" type="string">2021 09 29 </i>
  <i name="time" type="string">01:59:49 </i>
 </generator>
 <incar>
  <i type="string" name="SYSTEM"> La2O2S</i>
  <i type="string" name="PREC">normal</i>
  <i type="int" name="NELMIN">     4</i>
  <i type="int" name="IBRION">     2</i>
  <i type="int" name="NFREE">    10</i>
  <i name="EDIFF">      0.00000100</i>
  <i name="EDIFFG">     -0.01000000</i>
  <i type="int" name="NSW">     1</i>
  <i type="int" name="ISIF">     2</i>
  <i name="ENCUT">    600.00000000</i>
  <i name="ENAUG">    900.00000000</i>
  <i type="int" name="ISMEAR">    -5</i>
  <i type="logical" name="LWAVE"> F  </i>
  <i type="logical" name="LCHARG"> F  </i>
  <v type="int" name="KPOINT_BSE">    -1     0     0     0</v>
 </incar>
 <structure name="primitive_cell" >
  <crystal>
   <varray name="basis" >
    <v>      11.17850000       0.00000000       0.00000000 </v>
    <v>       0.00000000       9.57460000       0.00000000 </v>
    <v>       0.00000000       0.00000000      11.18240000 </v>
   </varray>
   <i name="volume">   1196.84853820 </i>
   <varray name="rec_basis" >
    <v>       0.08945744       0.00000000       0.00000000 </v>
    <v>       0.00000000       0.10444301       0.00000000 </v>
    <v>       0.00000000       0.00000000       0.08942624 </v>
   </varray>
  </crystal>
  <varray name="positions" >
   <v>       0.37539000       0.00017000       0.43687000 </v>
   <v>      -0.49987000      -0.07798000       0.31246000 </v>
   <v>       0.25013000       0.07798000       0.31246000 </v>
   <v>       0.49987000       0.07798000      -0.43754000 </v>
   <v>       0.24987000      -0.07798000      -0.43754000 </v>
   <v>      -0.37461000      -0.00016000       0.43687000 </v>
   <v>       0.37461000       0.00017000       0.18687000 </v>
   <v>       0.37461000       0.00017000      -0.31313000 </v>
   <v>       0.49987000      -0.29519000       0.31282000 </v>
   <v>       0.24987000       0.29519000       0.31282000 </v>
   <v>      -0.49987000       0.29519000      -0.43719000 </v>
   <v>       0.25013000      -0.29519000      -0.43719000 </v>
   <v>       0.49995000       0.32677000       0.31286000 </v>
   <v>       0.24995000      -0.32677000       0.31286000 </v>
   <v>      -0.49995000      -0.32677000      -0.43714000 </v>
   <v>       0.25005000       0.32677000      -0.43714000 </v>
   <v>      -0.37539000      -0.00016000       0.18687000 </v>
   <v>      -0.37539000      -0.00016000      -0.31313000 </v>
   <v>       0.12461000      -0.00016000       0.18687000 </v>
   <v>       0.12461000      -0.00016000      -0.31313000 </v>
   <v>       0.49987000       0.07798000       0.06246000 </v>
   <v>      -0.24987000       0.07798000       0.31246000 </v>
   <v>      -0.25013000      -0.07798000      -0.43754000 </v>
   <v>       0.24987000      -0.07798000       0.06246000 </v>
   <v>       0.00013000      -0.07798000       0.31246000 </v>
   <v>      -0.49987000      -0.07798000      -0.18754000 </v>
   <v>      -0.00013000       0.07798000      -0.43754000 </v>
   <v>       0.25013000       0.07798000      -0.18754000 </v>
   <v>      -0.49987000       0.29519000       0.06281000 </v>
   <v>      -0.25013000       0.29519000       0.31282000 </v>
   <v>       0.25013000      -0.29519000       0.06281000 </v>
   <v>      -0.24987000      -0.29519000      -0.43719000 </v>
   <v>      -0.00013000      -0.29519000       0.31282000 </v>
   <v>       0.00013000       0.29519000      -0.43719000 </v>
   <v>       0.49987000      -0.29519000      -0.18718000 </v>
   <v>       0.24987000       0.29519000      -0.18718000 </v>
   <v>      -0.49995000      -0.32677000       0.06286000 </v>
   <v>       0.25005000       0.32677000       0.06286000 </v>
   <v>      -0.25005000      -0.32677000       0.31286000 </v>
   <v>      -0.24995000       0.32677000      -0.43714000 </v>
   <v>      -0.00005000       0.32677000       0.31286000 </v>
   <v>       0.00005000      -0.32677000      -0.43714000 </v>
   <v>       0.49995000       0.32677000      -0.18714000 </v>
   <v>       0.24995000      -0.32677000      -0.18714000 </v>
   <v>      -0.12461000       0.00017000       0.43687000 </v>
   <v>      -0.25013000      -0.07798000       0.06246000 </v>
   <v>      -0.00013000       0.07798000       0.06246000 </v>
   <v>      -0.24987000       0.07798000      -0.18754000 </v>
   <v>       0.00013000      -0.07798000      -0.18754000 </v>
   <v>      -0.12539000       0.00017000       0.18687000 </v>
   <v>       0.12539000      -0.00016000      -0.06313000 </v>
   <v>      -0.37461000      -0.00016000      -0.06313000 </v>
   <v>      -0.24987000      -0.29519000       0.06281000 </v>
   <v>       0.00013000       0.29519000       0.06281000 </v>
   <v>      -0.25013000       0.29519000      -0.18718000 </v>
   <v>      -0.00013000      -0.29519000      -0.18718000 </v>
   <v>      -0.24995000       0.32677000       0.06286000 </v>
   <v>       0.00005000      -0.32677000       0.06286000 </v>
   <v>      -0.25005000      -0.32677000      -0.18714000 </v>
   <v>      -0.00005000       0.32677000      -0.18714000 </v>
   <v>      -0.12461000       0.00017000      -0.06313000 </v>
  </varray>
 </structure>
 <varray name="primitive_index" >
  <v type="int" >        1 </v>
  <v type="int" >       53 </v>
  <v type="int" >       48 </v>
  <v type="int" >       54 </v>
  <v type="int" >       55 </v>
  <v type="int" >        4 </v>
  <v type="int" >        3 </v>
  <v type="int" >        8 </v>
  <v type="int" >       17 </v>
  <v type="int" >       16 </v>
  <v type="int" >       26 </v>
  <v type="int" >       23 </v>
  <v type="int" >       32 </v>
  <v type="int" >       33 </v>
  <v type="int" >       43 </v>
  <v type="int" >       38 </v>
  <v type="int" >        5 </v>
  <v type="int" >       13 </v>
  <v type="int" >        2 </v>
  <v type="int" >       12 </v>
  <v type="int" >       46 </v>
  <v type="int" >       52 </v>
  <v type="int" >       59 </v>
  <v type="int" >       47 </v>
  <v type="int" >       49 </v>
  <v type="int" >       61 </v>
  <v type="int" >       58 </v>
  <v type="int" >       56 </v>
  <v type="int" >       18 </v>
  <v type="int" >       20 </v>
  <v type="int" >       15 </v>
  <v type="int" >       27 </v>
  <v type="int" >       21 </v>
  <v type="int" >       22 </v>
  <v type="int" >       25 </v>
  <v type="int" >       24 </v>
  <v type="int" >       35 </v>
  <v type="int" >       30 </v>
  <v type="int" >       37 </v>
  <v type="int" >       42 </v>
  <v type="int" >       36 </v>
  <v type="int" >       39 </v>
  <v type="int" >       40 </v>
  <v type="int" >       41 </v>
  <v type="int" >       11 </v>
  <v type="int" >       51 </v>
  <v type="int" >       50 </v>
  <v type="int" >       60 </v>
  <v type="int" >       57 </v>
  <v type="int" >        6 </v>
  <v type="int" >        7 </v>
  <v type="int" >        9 </v>
  <v type="int" >       19 </v>
  <v type="int" >       14 </v>
  <v type="int" >       28 </v>
  <v type="int" >       29 </v>
  <v type="int" >       34 </v>
  <v type="int" >       31 </v>
  <v type="int" >       45 </v>
  <v type="int" >       44 </v>
  <v type="int" >       10 </v>
 </varray>
 <kpoints>
  <generation param="Gamma">
   <v type="int" name="divisions">       2        2        2 </v>
   <v name="usershift">      0.00000000       0.00000000       0.00000000 </v>
   <v name="genvec1">      0.50000000       0.00000000       0.00000000 </v>
   <v name="genvec2">      0.00000000       0.50000000       0.00000000 </v>
   <v name="genvec3">      0.00000000       0.00000000       0.50000000 </v>
   <v name="shift">      0.00000000       0.00000000       0.00000000 </v>
  </generation>
  <varray name="kpointlist" >
   <v>       0.00000000       0.00000000       0.00000000 </v>
   <v>       0.50000000       0.00000000       0.00000000 </v>
   <v>       0.00000000       0.50000000       0.00000000 </v>
   <v>       0.50000000       0.50000000       0.00000000 </v>
   <v>       0.00000000       0.00000000       0.50000000 </v>
   <v>       0.50000000       0.00000000       0.50000000 </v>
   <v>       0.00000000       0.50000000       0.50000000 </v>
   <v>       0.50000000       0.50000000       0.50000000 </v>
  </varray>
  <varray name="weights" >
   <v>       0.12500000 </v>
   <v>       0.12500000 </v>
   <v>       0.12500000 </v>
   <v>       0.12500000 </v>
   <v>       0.12500000 </v>
   <v>       0.12500000 </v>
   <v>       0.12500000 </v>
   <v>       0.12500000 </v>
  </varray>
  <varray name="tetrahedronlist"  type="int" >
   <v type="int" >        2        1        2        4        5 </v>
   <v type="int" >        2        1        3        4        5 </v>
   <v type="int" >        2        3        4        5        7 </v>
   <v type="int" >        2        2        4        5        6 </v>
   <v type="int" >        2        4        5        6        8 </v>
   <v type="int" >        2        4        5        7        8 </v>
   <v type="int" >        2        1        2        3        6 </v>
   <v type="int" >        2        2        3        4        6 </v>
   <v type="int" >        2        3        4        6        8 </v>
   <v type="int" >        2        1        3        5        6 </v>
   <v type="int" >        2        3        5        6        7 </v>
   <v type="int" >        2        3        6        7        8 </v>
   <v type="int" >        2        2        3        4        7 </v>
   <v type="int" >        2        1        2        3        7 </v>
   <v type="int" >        2        1        2        5        7 </v>
   <v type="int" >        2        2        4        7        8 </v>
   <v type="int" >        2        2        6        7        8 </v>
   <v type="int" >        2        2        5        6        7 </v>
   <v type="int" >        2        1        3        4        8 </v>
   <v type="int" >        2        1        2        4        8 </v>
   <v type="int" >        2        1        2        6        8 </v>
   <v type="int" >        2        1        3        7        8 </v>
   <v type="int" >        2        1        5        7        8 </v>
   <v type="int" >        2        1        5        6        8 </v>
  </varray>
  <i name="volumeweight">      0.02083333 </i>
 </kpoints>
 <parameters>
  <separator name="general" >
   <i type="string" name="SYSTEM">La2O2S</i>
   <i type="logical" name="LCOMPAT"> F  </i>
  </separator>
  <separator name="electronic" >
   <i type="string" name="PREC">normal</i>
   <i name="ENMAX">    600.00000000</i>
   <i name="ENAUG">    900.00000000</i>
   <i name="EDIFF">      0.00000100</i>
   <i type="int" name="IALGO">    38</i>
   <i type="int" name="IWAVPR">    11</i>
   <i type="int" name="NBANDS">   280</i>
   <i name="NELECT">    468.00000000</i>
   <i type="int" name="TURBO">     0</i>
   <i type="int" name="IRESTART">     0</i>
   <i type="int" name="NREBOOT">     0</i>
   <i type="int" name="NMIN">     0</i>
   <i name="EREF">      0.00000000</i>
   <separator name="electronic smearing" >
    <i type="int" name="ISMEAR">    -5</i>
    <i name="SIGMA">      0.20000000</i>
    <i name="KSPACING">      0.50000000</i>
    <i type="logical" name="KGAMMA"> T  </i>
   </separator>
   <separator name="electronic projectors" >
    <i type="logical" name="LREAL"> F  </i>
    <v name="ROPT">      0.00000000      0.00000000      0.00000000      0.00000000      0.00000000</v>
    <i type="int" name="LMAXPAW">  -100</i>
    <i type="int" name="LMAXMIX">     2</i>
    <i type="logical" name="NLSPLINE"> F  </i>
   </separator>
   <separator name="electronic startup" >
    <i type="int" name="ISTART">     0</i>
    <i type="int" name="ICHARG">     2</i>
    <i type="int" name="INIWAV">     1</i>
   </separator>
   <separator name="electronic spin" >
    <i type="int" name="ISPIN">     1</i>
    <i type="logical" name="LNONCOLLINEAR"> F  </i>
    <v name="MAGMOM">      1.00000000      1.00000000      1.00000000      1.00000000      1.00000000      1.00000000      1.00000000      1.00000000      1.00000000      1.00000000      1.00000000      1.00000000      1.00000000      1.00000000      1.00000000      1.00000000      1.00000000      1.00000000      1.00000000      1.00000000
      1.00000000      1.00000000      1.00000000      1.00000000      1.00000000      1.00000000      1.00000000      1.00000000      1.00000000      1.00000000      1.00000000      1.00000000      1.00000000      1.00000000      1.00000000      1.00000000      1.00000000      1.00000000      1.00000000      1.00000000
      1.00000000      1.00000000      1.00000000      1.00000000      1.00000000      1.00000000      1.00000000      1.00000000      1.00000000      1.00000000      1.00000000      1.00000000      1.00000000      1.00000000      1.00000000      1.00000000      1.00000000      1.00000000      1.00000000      1.00000000
      1.00000000</v>
    <i name="NUPDOWN">     -1.00000000</i>
    <i type="logical" name="LSORBIT"> F  </i>
    <v name="SAXIS">      0.00000000      0.00000000      1.00000000</v>
    <i type="logical" name="LSPIRAL"> F  </i>
    <v name="QSPIRAL">      0.00000000      0.00000000      0.00000000</v>
    <i type="logical" name="LZEROZ"> F  </i>
   </separator>
   <separator name="electronic exchange-correlation" >
    <i type="logical" name="LASPH"> F  </i>
    <i type="logical" name="LMETAGGA"> F  </i>
   </separator>
   <separator name="electronic convergence" >
    <i type="int" name="NELM">    60</i>
    <i type="int" name="NELMDL">    -5</i>
    <i type="int" name="NELMIN">     4</i>
    <i name="ENINI">    600.00000000</i>
    <separator name="electronic convergence detail" >
     <i type="logical" name="LDIAG"> T  </i>
     <i type="logical" name="LSUBROT"> F  </i>
     <i name="WEIMIN">      0.00100000</i>
     <i name="EBREAK">      0.00000000</i>
     <i name="DEPER">      0.30000000</i>
     <i type="int" name="NRMM">     4</i>
     <i name="TIME">      0.40000000</i>
    </separator>
   </separator>
   <separator name="electronic mixer" >
    <i name="AMIX">      0.40000000</i>
    <i name="BMIX">      1.00000000</i>
    <i name="AMIN">      0.10000000</i>
    <i name="AMIX_MAG">      1.60000000</i>
    <i name="BMIX_MAG">      1.00000000</i>
    <separator name="electronic mixer details" >
     <i type="int" name="IMIX">     4</i>
     <i type="logical" name="MIXFIRST"> F  </i>
     <i type="int" name="MAXMIX">   -45</i>
     <i name="WC">    100.00000000</i>
     <i type="int" name="INIMIX">     1</i>
     <i type="int" name="MIXPRE">     1</i>
     <i type="int" name="MREMOVE">     5</i>
    </separator>
   </separator>
   <separator name="electronic dipolcorrection" >
    <i type="logical" name="LDIPOL"> F  </i>
    <i type="logical" name="LMONO"> F  </i>
    <i type="int" name="IDIPOL">     0</i>
    <i name="EPSILON">      1.00000000</i>
    <v name="DIPOL">   -100.00000000   -100.00000000   -100.00000000</v>
    <i name="EFIELD">      0.00000000</i>
   </separator>
  </separator>
  <separator name="grids" >
   <i type="int" name="NGX">    70</i>
   <i type="int" name="NGY">    60</i>
   <i type="int" name="NGZ">    70</i>
   <i type="int" name="NGXF">   140</i>
   <i type="int" name="NGYF">   120</i>
   <i type="int" name="NGZF">   140</i>
   <i type="logical" name="ADDGRID"> F  </i>
  </separator>
  <separator name="ionic" >
   <i type="int" name="NSW">     1</i>
   <i type="int" name="IBRION">     2</i>
   <i type="int" name="MDALGO">     0</i>
   <i type="int" name="ISIF">     2</i>
   <i name="PSTRESS">      0.00000000</i>
   <i name="EDIFFG">     -0.01000000</i>
   <i type="int" name="NFREE">    10</i>
   <i name="POTIM">      0.50000000</i>
   <i name="SMASS">     -3.00000000</i>
   <i name="SCALEE">      1.00000000</i>
  </separator>
  <separator name="ionic md" >
   <i name="TEBEG">      0.00010000</i>
   <i name="TEEND">      0.00010000</i>
   <i type="int" name="NBLOCK">     1</i>
   <i type="int" name="KBLOCK">     1</i>
   <i type="int" name="NPACO">   256</i>
   <i name="APACO">     16.00000000</i>
  </separator>
  <separator name="symmetry" >
   <i type="int" name="ISYM">     2</i>
   <i name="SYMPREC">      0.00001000</i>
  </separator>
  <separator name="dos" >
   <i type="int" name="LORBIT">     0</i>
   <v name="RWIGS">     -1.00000000     -1.00000000     -1.00000000     -1.00000000     -1.00000000</v>
   <i type="int" name="NEDOS">   301</i>
   <i name="EMIN">     10.00000000</i>
   <i name="EMAX">    -10.00000000</i>
   <i name="EFERMI">      0.00000000</i>
  </separator>
  <separator name="writing" >
   <i type="int" name="NWRITE">     2</i>
   <i type="logical" name="LWAVE"> F  </i>
   <i type="logical" name="LDOWNSAMPLE"> F  </i>
   <i type="logical" name="LCHARG"> F  </i>
   <i type="logical" name="LPARD"> F  </i>
   <i type="logical" name="LVTOT"> F  </i>
   <i type="logical" name="LVHAR"> F  </i>
   <i type="logical" name="LELF"> F  </i>
   <i type="logical" name="LOPTICS"> F  </i>
   <v name="STM">      0.00000000      0.00000000      0.00000000      0.00000000      0.00000000      0.00000000      0.00000000</v>
  </separator>
  <separator name="performance" >
   <i type="int" name="NPAR">    28</i>
   <i type="int" name="NSIM">     4</i>
   <i type="int" name="NBLK">    -1</i>
   <i type="logical" name="LPLANE"> T  </i>
   <i type="logical" name="LSCALAPACK"> T  </i>
   <i type="logical" name="LSCAAWARE"> F  </i>
   <i type="logical" name="LSCALU"> F  </i>
   <i type="logical" name="LASYNC"> F  </i>
   <i type="logical" name="LORBITALREAL"> F  </i>
  </separator>
  <separator name="miscellaneous" >
   <i type="int" name="IDIOT">     3</i>
   <i type="int" name="ISPECIAL">     0</i>
   <i type="logical" name="LMUSIC"> F  </i>
   <v name="POMASS">      7.01000000     24.30500000    208.98000000     32.06600000     16.00000000</v>
   <v name="DARWINR">      0.00000000      0.00000000      0.00000000      0.00000000      0.00000000</v>
   <v name="DARWINV">      1.00000000      1.00000000      1.00000000      1.00000000      1.00000000</v>
   <i type="logical" name="LCORR"> T  </i>
  </separator>
  <i type="logical" name="GGA_COMPAT"> T  </i>
  <i type="logical" name="LBERRY"> F  </i>
  <i type="int" name="ICORELEVEL">     0</i>
  <i type="logical" name="LDAU"> F  </i>
  <i type="int" name="I_CONSTRAINED_M">     0</i>
  <separator name="electronic exchange-correlation" >
   <i type="string" name="GGA">--</i>
   <i type="int" name="VOSKOWN">     0</i>
   <i type="logical" name="LHFCALC"> F  </i>
   <i type="string" name="PRECFOCK"></i>
   <i type="logical" name="LSYMGRAD"> F  </i>
   <i type="logical" name="LHFONE"> F  </i>
   <i type="logical" name="LRHFCALC"> F  </i>
   <i type="logical" name="LTHOMAS"> F  </i>
   <i type="logical" name="LMODELHF"> F  </i>
   <i name="ENCUT4O">     -1.00000000</i>
   <i type="int" name="EXXOEP">     0</i>
   <i type="int" name="FOURORBIT">     0</i>
   <i name="AEXX">      0.00000000</i>
   <i name="HFALPHA">      0.00000000</i>
   <i name="MCALPHA">      0.00000000</i>
   <i name="ALDAX">      1.00000000</i>
   <i name="AGGAX">      1.00000000</i>
   <i name="ALDAC">      1.00000000</i>
   <i name="AGGAC">      1.00000000</i>
   <i type="int" name="NKREDX">     1</i>
   <i type="int" name="NKREDY">     1</i>
   <i type="int" name="NKREDZ">     1</i>
   <i type="logical" name="SHIFTRED"> F  </i>
   <i type="logical" name="ODDONLY"> F  </i>
   <i type="logical" name="EVENONLY"> F  </i>
   <i type="int" name="LMAXFOCK">     0</i>
   <i type="int" name="NMAXFOCKAE">     0</i>
   <i type="logical" name="LFOCKAEDFT"> F  </i>
   <i name="HFSCREEN">      0.00000000</i>
   <i name="HFSCREENC">      0.00000000</i>
   <i type="int" name="NBANDSGWLOW">     0</i>
  </separator>
  <separator name="vdW DFT" >
   <i type="logical" name="LUSE_VDW"> F  </i>
   <i name="Zab_VDW">     -0.84910000</i>
   <i name="PARAM1">      0.12340000</i>
   <i name="PARAM2">      1.00000000</i>
   <i name="PARAM3">      0.00000000</i>
  </separator>
  <separator name="model GW" >
   <i type="int" name="MODEL_GW">     0</i>
   <i name="MODEL_EPS0">     11.77228070</i>
   <i name="MODEL_ALPHA">      1.00000000</i>
  </separator>
  <separator name="linear response parameters" >
   <i type="logical" name="LEPSILON"> F  </i>
   <i type="logical" name="LRPA"> F  </i>
   <i type="logical" name="LNABLA"> F  </i>
   <i type="logical" name="LVEL"> F  </i>
   <i type="int" name="KINTER">     0</i>
   <i name="CSHIFT">      0.10000000</i>
   <i name="OMEGAMAX">     -1.00000000</i>
   <i name="DEG_THRESHOLD">      0.00200000</i>
   <i name="RTIME">     -0.10000000</i>
   <i name="WPLASMAI">      0.00000000</i>
   <v name="DFIELD">      0.00000000      0.00000000      0.00000000</v>
   <v name="WPLASMA">      0.00000000      0.00000000      0.00000000      0.00000000      0.00000000      0.00000000      0.00000000      0.00000000      0.00000000</v>
  </separator>
  <separator name="orbital magnetization" >
   <i type="logical" name="NUCIND"> F  </i>
   <v name="MAGPOS">      0.00000000      0.00000000      0.00000000</v>
   <i type="logical" name="LNICSALL"> T  </i>
   <i type="logical" name="ORBITALMAG"> F  </i>
   <i type="logical" name="LMAGBLOCH"> F  </i>
   <i type="logical" name="LCHIMAG"> F  </i>
   <i type="logical" name="LGAUGE"> T  </i>
   <i type="int" name="MAGATOM">     0</i>
   <v name="MAGDIPOL">      0.00000000      0.00000000      0.00000000</v>
   <v name="AVECCONST">      0.00000000      0.00000000      0.00000000</v>
  </separator>
  <separator name="response functions" >
   <i type="logical" name="LADDER"> F  </i>
   <i type="logical" name="LRPAFORCE"> F  </i>
   <i type="logical" name="LFXC"> F  </i>
   <i type="logical" name="LHARTREE"> T  </i>
   <i type="int" name="IBSE">     0</i>
   <v type="int" name="KPOINT">    -1     0     0     0</v>
   <i type="logical" name="LTCTE"> F  </i>
   <i type="logical" name="LTETE"> F  </i>
   <i type="logical" name="LTRIPLET"> F  </i>
   <i type="logical" name="LFXCEPS"> F  </i>
   <i type="logical" name="LFXHEG"> F  </i>
   <i type="int" name="NATURALO">     2</i>
   <i type="logical" name="L2ORDER"> F  </i>
   <i type="logical" name="LMP2LT"> F  </i>
   <i type="logical" name="LUSEW"> F  </i>
   <i name="ENCUTGW">     -2.00000000</i>
   <i name="ENCUTGWSOFT">     -2.00000000</i>
   <i name="ENCUTLF">     -1.00000000</i>
   <i type="int" name="LMAXMP2">    -1</i>
   <i name="SCISSOR">      0.00000000</i>
   <i type="int" name="NOMEGA">     0</i>
   <i type="int" name="NOMEGAR">     0</i>
   <i type="int" name="NBANDSGW">    -1</i>
   <i type="int" name="NBANDSO">    -1</i>
   <i type="int" name="NBANDSV">    -1</i>
   <i type="int" name="NELM">     1</i>
   <i type="int" name="NELMHF">     1</i>
   <i type="int" name="DIM">     3</i>
   <i type="int" name="ANTIRES">     0</i>
   <i name="OMEGAMAX">    -30.00000000</i>
   <i name="OMEGAMIN">    -30.00000000</i>
   <i name="OMEGATL">   -200.00000000</i>
   <i type="int" name="OMEGAGRID">   140</i>
   <i name="CSHIFT">     -0.10000000</i>
   <i type="logical" name="SELFENERGY"> F  </i>
   <i type="logical" name="LSPECTRAL"> F  </i>
   <i type="logical" name="LSPECTRALGW"> F  </i>
   <i type="logical" name="LSINGLES"> F  </i>
   <i type="logical" name="LFERMIGW"> F  </i>
   <i type="logical" name="ODDONLYGW"> F  </i>
   <i type="logical" name="EVENONLYGW"> F  </i>
   <i type="int" name="NKREDLFX">     1</i>
   <i type="int" name="NKREDLFY">     1</i>
   <i type="int" name="NKREDLFZ">     1</i>
   <i type="int" name="MAXMEM">  2800</i>
   <i type="int" name="TELESCOPE">     0</i>
   <i type="int" name="TAUPAR">     1</i>
   <i type="int" name="OMEGAPAR">    -1</i>
   <i name="LAMBDA">      1.00000000</i>
  </separator>
  <separator name="External order field" >
   <i name="OFIELD_KAPPA">      0.00000000</i>
   <v name="OFIELD_K">      0.00000000      0.00000000      0.00000000</v>
   <i name="OFIELD_Q6_NEAR">      0.00000000</i>
   <i name="OFIELD_Q6_FAR">      0.00000000</i>
   <i name="OFIELD_A">      0.00000000</i>
  </separator>
 </parameters>
 <atominfo>
  <atoms>      61 </atoms>
  <types>       5 </types>
  <array name="atoms" >
   <dimension dim="1">ion</dimension>
   <field type="string">element</field>
   <field type="int">atomtype</field>
   <set>
    <rc><c>Li</c><c>   1</c></rc>
    <rc><c>Li</c><c>   1</c></rc>
    <rc><c>Li</c><c>   1</c></rc>
    <rc><c>Li</c><c>   1</c></rc>
    <rc><c>Li</c><c>   1</c></rc>
    <rc><c>Li</c><c>   1</c></rc>
    <rc><c>Li</c><c>   1</c></rc>
    <rc><c>Li</c><c>   1</c></rc>
    <rc><c>Li</c><c>   1</c></rc>
    <rc><c>Li</c><c>   1</c></rc>
    <rc><c>Mg</c><c>   2</c></rc>
    <rc><c>Mg</c><c>   2</c></rc>
    <rc><c>Mg</c><c>   2</c></rc>
    <rc><c>Bi</c><c>   3</c></rc>
    <rc><c>Bi</c><c>   3</c></rc>
    <rc><c>Bi</c><c>   3</c></rc>
    <rc><c>Bi</c><c>   3</c></rc>
    <rc><c>Bi</c><c>   3</c></rc>
    <rc><c>Bi</c><c>   3</c></rc>
    <rc><c>Bi</c><c>   3</c></rc>
    <rc><c>Bi</c><c>   3</c></rc>
    <rc><c>Bi</c><c>   3</c></rc>
    <rc><c>Bi</c><c>   3</c></rc>
    <rc><c>Bi</c><c>   3</c></rc>
    <rc><c>Bi</c><c>   3</c></rc>
    <rc><c>Bi</c><c>   3</c></rc>
    <rc><c>Bi</c><c>   3</c></rc>
    <rc><c>Bi</c><c>   3</c></rc>
    <rc><c>Bi</c><c>   3</c></rc>
    <rc><c>S </c><c>   4</c></rc>
    <rc><c>S </c><c>   4</c></rc>
    <rc><c>S </c><c>   4</c></rc>
    <rc><c>S </c><c>   4</c></rc>
    <rc><c>S </c><c>   4</c></rc>
    <rc><c>S </c><c>   4</c></rc>
    <rc><c>S </c><c>   4</c></rc>
    <rc><c>S </c><c>   4</c></rc>
    <rc><c>S </c><c>   4</c></rc>
    <rc><c>S </c><c>   4</c></rc>
    <rc><c>S </c><c>   4</c></rc>
    <rc><c>S </c><c>   4</c></rc>
    <rc><c>S </c><c>   4</c></rc>
    <rc><c>S </c><c>   4</c></rc>
    <rc><c>S </c><c>   4</c></rc>
    <rc><c>S </c><c>   4</c></rc>
    <rc><c>O </c><c>   5</c></rc>
    <rc><c>O </c><c>   5</c></rc>
    <rc><c>O </c><c>   5</c></rc>
    <rc><c>O </c><c>   5</c></rc>
    <rc><c>O </c><c>   5</c></rc>
    <rc><c>O </c><c>   5</c></rc>
    <rc><c>O </c><c>   5</c></rc>
    <rc><c>O </c><c>   5</c></rc>
    <rc><c>O </c><c>   5</c></rc>
    <rc><c>O </c><c>   5</c></rc>
    <rc><c>O </c><c>   5</c></rc>
    <rc><c>O </c><c>   5</c></rc>
    <rc><c>O </c><c>   5</c></rc>
    <rc><c>O </c><c>   5</c></rc>
    <rc><c>O </c><c>   5</c></rc>
    <rc><c>O </c><c>   5</c></rc>
   </set>
  </array>
  <array name="atomtypes" >
   <dimension dim="1">type</dimension>
   <field type="int">atomspertype</field>
   <field type="string">element</field>
   <field>mass</field>
   <field>valence</field>
   <field type="string">pseudopotential</field>
   <set>
    <rc><c>  10</c><c>Li</c><c>      7.01000000</c><c>      3.00000000</c><c>  PAW_PBE Li_sv 10Sep2004               </c></rc>
    <rc><c>   3</c><c>Mg</c><c>     24.30500000</c><c>      2.00000000</c><c>  PAW_PBE Mg 13Apr2007                  </c></rc>
    <rc><c>  16</c><c>Bi</c><c>    208.98000000</c><c>     15.00000000</c><c>  PAW_PBE Bi_d 06Sep2000                </c></rc>
    <rc><c>  16</c><c>S </c><c>     32.06600000</c><c>      6.00000000</c><c>  PAW_PBE S 06Sep2000                   </c></rc>
    <rc><c>  16</c><c>O </c><c>     16.00000000</c><c>      6.00000000</c><c>  PAW_PBE O 08Apr2002                   </c></rc>
   </set>
  </array>
 </atominfo>
 <structure name="initialpos" >
  <crystal>
   <varray name="basis" >
    <v>      11.17850000       0.00000000       0.00000000 </v>
    <v>       0.00000000       9.57460000       0.00000000 </v>
    <v>       0.00000000       0.00000000      11.18240000 </v>
   </varray>
   <i name="volume">   1196.84853820 </i>
   <varray name="rec_basis" >
    <v>       0.08945744       0.00000000       0.00000000 </v>
    <v>       0.00000000       0.10444301       0.00000000 </v>
    <v>       0.00000000       0.00000000       0.08942624 </v>
   </varray>
  </crystal>
  <varray name="positions" >
   <v>       0.37539000       0.00017000       0.43687000 </v>
   <v>       0.12461000       0.99984000       0.18687000 </v>
   <v>       0.37461000       0.00017000       0.18687000 </v>
   <v>       0.62539000       0.99984000       0.43687000 </v>
   <v>       0.62461000       0.99984000       0.18687000 </v>
   <v>       0.87461000       0.00017000       0.18687000 </v>
   <v>       0.12539000       0.99984000       0.93687000 </v>
   <v>       0.37461000       0.00017000       0.68687000 </v>
   <v>       0.62539000       0.99984000       0.93687000 </v>
   <v>       0.87539000       0.00017000       0.93687000 </v>
   <v>       0.87539000       0.00017000       0.43687000 </v>
   <v>       0.12461000       0.99984000       0.68687000 </v>
   <v>       0.62461000       0.99984000       0.68687000 </v>
   <v>       0.00013000       0.29519000       0.06281000 </v>
   <v>       0.25013000       0.70481000       0.06281000 </v>
   <v>       0.24987000       0.29519000       0.31282000 </v>
   <v>       0.49987000       0.70481000       0.31282000 </v>
   <v>       0.50013000       0.29519000       0.06281000 </v>
   <v>       0.75013000       0.70481000       0.06281000 </v>
   <v>       0.74987000       0.29519000       0.31282000 </v>
   <v>       0.99987000       0.70481000       0.31282000 </v>
   <v>       0.00013000       0.29519000       0.56281000 </v>
   <v>       0.25013000       0.70481000       0.56281000 </v>
   <v>       0.24987000       0.29519000       0.81282000 </v>
   <v>       0.49987000       0.70481000       0.81282000 </v>
   <v>       0.50013000       0.29519000       0.56281000 </v>
   <v>       0.75013000       0.70481000       0.56281000 </v>
   <v>       0.74987000       0.29519000       0.81282000 </v>
   <v>       0.99987000       0.70481000       0.81282000 </v>
   <v>       0.25005000       0.32677000       0.06286000 </v>
   <v>       0.00005000       0.67323000       0.06286000 </v>
   <v>       0.49995000       0.32677000       0.31286000 </v>
   <v>       0.24995000       0.67323000       0.31286000 </v>
   <v>       0.75005000       0.32677000       0.06286000 </v>
   <v>       0.50005000       0.67323000       0.06286000 </v>
   <v>       0.99995000       0.32677000       0.31286000 </v>
   <v>       0.74995000       0.67323000       0.31286000 </v>
   <v>       0.25005000       0.32677000       0.56286000 </v>
   <v>       0.00005000       0.67323000       0.56286000 </v>
   <v>       0.49995000       0.32677000       0.81286000 </v>
   <v>       0.24995000       0.67323000       0.81286000 </v>
   <v>       0.75005000       0.32677000       0.56286000 </v>
   <v>       0.50005000       0.67323000       0.56286000 </v>
   <v>       0.99995000       0.32677000       0.81286000 </v>
   <v>       0.74995000       0.67323000       0.81286000 </v>
   <v>       0.49987000       0.07798000       0.06246000 </v>
   <v>       0.24987000       0.92202000       0.06246000 </v>
   <v>       0.25013000       0.07798000       0.31246000 </v>
   <v>       0.00013000       0.92202000       0.31246000 </v>
   <v>       0.99987000       0.07798000       0.06246000 </v>
   <v>       0.74987000       0.92202000       0.06246000 </v>
   <v>       0.75013000       0.07798000       0.31246000 </v>
   <v>       0.50013000       0.92202000       0.31246000 </v>
   <v>       0.49987000       0.07798000       0.56246000 </v>
   <v>       0.24987000       0.92202000       0.56246000 </v>
   <v>       0.25013000       0.07798000       0.81246000 </v>
   <v>       0.00013000       0.92202000       0.81246000 </v>
   <v>       0.99987000       0.07798000       0.56246000 </v>
   <v>       0.74987000       0.92202000       0.56246000 </v>
   <v>       0.75013000       0.07798000       0.81246000 </v>
   <v>       0.50013000       0.92202000       0.81246000 </v>
  </varray>
 </structure>
 <calculation>
  <scstep>
   <time name="dav">   60.35   60.42</time>
   <time name="total">   60.43   60.51</time>
   <energy>
    <i name="alphaZ">   1073.51873187 </i>
    <i name="ewald"> -30877.57129686 </i>
    <i name="hartreedc"> -12711.61783268 </i>
    <i name="XCdc">   1394.97042689 </i>
    <i name="pawpsdc">  36823.70205594 </i>
    <i name="pawaedc"> -36326.52930246 </i>
    <i name="eentropy">      0.00000000 </i>
    <i name="bandstr">   1807.00300161 </i>
    <i name="atom">  44791.06186932 </i>
    <i name="e_fr_energy">   5974.53765363 </i>
    <i name="e_wo_entrp">   5974.53765363 </i>
    <i name="e_0_energy">   5974.53765363 </i>
   </energy>
  </scstep>
  <scstep>
   <time name="dav">   61.14   61.16</time>
   <time name="total">   61.15   61.17</time>
   <energy>
    <i name="e_fr_energy">    797.90907806 </i>
    <i name="e_wo_entrp">    797.90907806 </i>
    <i name="e_0_energy">    797.90907806 </i>
   </energy>
  </scstep>
  <scstep>
   <time name="dav">   69.50   69.63</time>
   <time name="total">   69.51   69.64</time>
   <energy>
    <i name="e_fr_energy">   -244.41747697 </i>
    <i name="e_wo_entrp">   -244.41747697 </i>
    <i name="e_0_energy">   -244.41747697 </i>
   </energy>
  </scstep>
  <scstep>
   <time name="dav">   72.66   72.96</time>
   <time name="total">   72.67   72.97</time>
   <energy>
    <i name="e_fr_energy">   -346.51509793 </i>
    <i name="e_wo_entrp">   -346.51509793 </i>
    <i name="e_0_energy">   -346.51509793 </i>
   </energy>
  </scstep>
  <scstep>
   <time name="dav">   94.90   95.46</time>
   <time name="total">   95.66   96.23</time>
   <energy>
    <i name="e_fr_energy">   -355.25007571 </i>
    <i name="e_wo_entrp">   -355.25007571 </i>
    <i name="e_0_energy">   -355.25007571 </i>
   </energy>
  </scstep>
  <scstep>
   <time name="dav">   85.56   86.08</time>
   <time name="total">   86.36   86.90</time>
   <energy>
    <i name="e_fr_energy">   -296.45343439 </i>
    <i name="e_wo_entrp">   -296.45343439 </i>
    <i name="e_0_energy">   -296.45343439 </i>
   </energy>
  </scstep>
  <scstep>
   <time name="dav">   65.54   65.66</time>
   <time name="total">   66.33   66.46</time>
   <energy>
    <i name="e_fr_energy">   -299.24826381 </i>
    <i name="e_wo_entrp">   -299.24826381 </i>
    <i name="e_0_energy">   -299.24826381 </i>
   </energy>
  </scstep>
  <scstep>
   <time name="dav">   80.58   80.79</time>
   <time name="total">   81.38   81.59</time>
   <energy>
    <i name="e_fr_energy">   -297.98022709 </i>
    <i name="e_wo_entrp">   -297.98022709 </i>
    <i name="e_0_energy">   -297.98022709 </i>
   </energy>
  </scstep>
  <scstep>
   <time name="dav">   78.48   79.15</time>
   <time name="total">   79.33   80.00</time>
   <energy>
    <i name="e_fr_energy">   -297.32312460 </i>
    <i name="e_wo_entrp">   -297.32312460 </i>
    <i name="e_0_energy">   -297.32312460 </i>
   </energy>
  </scstep>
  <scstep>
   <time name="dav">   72.76   73.46</time>
   <time name="total">   73.56   74.26</time>
   <energy>
    <i name="e_fr_energy">   -297.32658342 </i>
    <i name="e_wo_entrp">   -297.32658342 </i>
    <i name="e_0_energy">   -297.32658342 </i>
   </energy>
  </scstep>
  <scstep>
   <time name="dav">   76.81   78.03</time>
   <time name="total">   77.61   78.84</time>
   <energy>
    <i name="e_fr_energy">   -297.33656388 </i>
    <i name="e_wo_entrp">   -297.33656388 </i>
    <i name="e_0_energy">   -297.33656388 </i>
   </energy>
  </scstep>
  <scstep>
   <time name="dav">   79.66   80.36</time>
   <time name="total">   80.46   81.16</time>
   <energy>
    <i name="e_fr_energy">   -297.33997818 </i>
    <i name="e_wo_entrp">   -297.33997818 </i>
    <i name="e_0_energy">   -297.33997818 </i>
   </energy>
  </scstep>
  <scstep>
   <time name="dav">   74.57   74.62</time>
   <time name="total">   75.37   75.42</time>
   <energy>
    <i name="e_fr_energy">   -297.34126918 </i>
    <i name="e_wo_entrp">   -297.34126918 </i>
    <i name="e_0_energy">   -297.34126918 </i>
   </energy>
  </scstep>
  <scstep>
   <time name="dav">   73.28   73.44</time>
   <time name="total">   74.08   74.24</time>
   <energy>
    <i name="e_fr_energy">   -297.34153205 </i>
    <i name="e_wo_entrp">   -297.34153205 </i>
    <i name="e_0_energy">   -297.34153205 </i>
   </energy>
  </scstep>
  <scstep>
   <time name="dav">   79.97   80.15</time>
   <time name="total">   80.80   80.98</time>
   <energy>
    <i name="e_fr_energy">   -297.34158793 </i>
    <i name="e_wo_entrp">   -297.34158793 </i>
    <i name="e_0_energy">   -297.34158793 </i>
   </energy>
  </scstep>
  <scstep>
   <time name="dav">   68.47   68.59</time>
   <time name="total">   69.27   69.39</time>
   <energy>
    <i name="e_fr_energy">   -297.34160870 </i>
    <i name="e_wo_entrp">   -297.34160870 </i>
    <i name="e_0_energy">   -297.34160870 </i>
   </energy>
  </scstep>
  <scstep>
   <time name="dav">   71.73   71.84</time>
   <time name="total">   72.52   72.64</time>
   <energy>
    <i name="e_fr_energy">   -297.34161127 </i>
    <i name="e_wo_entrp">   -297.34161127 </i>
    <i name="e_0_energy">   -297.34161127 </i>
   </energy>
  </scstep>
  <scstep>
   <time name="dav">   57.29   57.37</time>
   <time name="total">   57.36   57.45</time>
   <energy>
    <i name="alphaZ">   1073.51873187 </i>
    <i name="ewald"> -30877.57129686 </i>
    <i name="hartreedc"> -12949.29173305 </i>
    <i name="XCdc">   1418.53771383 </i>
    <i name="pawpsdc">  43849.82421517 </i>
    <i name="pawaedc"> -43327.36196828 </i>
    <i name="eentropy">      0.00000000 </i>
    <i name="bandstr">  -4276.05914383 </i>
    <i name="atom">  44791.06186932 </i>
    <i name="e_fr_energy">   -297.34161184 </i>
    <i name="e_wo_entrp">   -297.34161184 </i>
    <i name="e_0_energy">   -297.34161184 </i>
   </energy>
  </scstep>
  <structure>
   <crystal>
    <varray name="basis" >
     <v>      11.17850000       0.00000000       0.00000000 </v>
     <v>       0.00000000       9.57460000       0.00000000 </v>
     <v>       0.00000000       0.00000000      11.18240000 </v>
    </varray>
    <i name="volume">   1196.84853820 </i>
    <varray name="rec_basis" >
     <v>       0.08945744       0.00000000       0.00000000 </v>
     <v>       0.00000000       0.10444301       0.00000000 </v>
     <v>       0.00000000       0.00000000       0.08942624 </v>
    </varray>
   </crystal>
   <varray name="positions" >
    <v>       0.37539000       0.00017000       0.43687000 </v>
    <v>       0.12461000       0.99984000       0.18687000 </v>
    <v>       0.37461000       0.00017000       0.18687000 </v>
    <v>       0.62539000       0.99984000       0.43687000 </v>
    <v>       0.62461000       0.99984000       0.18687000 </v>
    <v>       0.87461000       0.00017000       0.18687000 </v>
    <v>       0.12539000       0.99984000       0.93687000 </v>
    <v>       0.37461000       0.00017000       0.68687000 </v>
    <v>       0.62539000       0.99984000       0.93687000 </v>
    <v>       0.87539000       0.00017000       0.93687000 </v>
    <v>       0.87539000       0.00017000       0.43687000 </v>
    <v>       0.12461000       0.99984000       0.68687000 </v>
    <v>       0.62461000       0.99984000       0.68687000 </v>
    <v>       0.00013000       0.29519000       0.06281000 </v>
    <v>       0.25013000       0.70481000       0.06281000 </v>
    <v>       0.24987000       0.29519000       0.31282000 </v>
    <v>       0.49987000       0.70481000       0.31282000 </v>
    <v>       0.50013000       0.29519000       0.06281000 </v>
    <v>       0.75013000       0.70481000       0.06281000 </v>
    <v>       0.74987000       0.29519000       0.31282000 </v>
    <v>       0.99987000       0.70481000       0.31282000 </v>
    <v>       0.00013000       0.29519000       0.56281000 </v>
    <v>       0.25013000       0.70481000       0.56281000 </v>
    <v>       0.24987000       0.29519000       0.81282000 </v>
    <v>       0.49987000       0.70481000       0.81282000 </v>
    <v>       0.50013000       0.29519000       0.56281000 </v>
    <v>       0.75013000       0.70481000       0.56281000 </v>
    <v>       0.74987000       0.29519000       0.81282000 </v>
    <v>       0.99987000       0.70481000       0.81282000 </v>
    <v>       0.25005000       0.32677000       0.06286000 </v>
    <v>       0.00005000       0.67323000       0.06286000 </v>
    <v>       0.49995000       0.32677000       0.31286000 </v>
    <v>       0.24995000       0.67323000       0.31286000 </v>
    <v>       0.75005000       0.32677000       0.06286000 </v>
    <v>       0.50005000       0.67323000       0.06286000 </v>
    <v>       0.99995000       0.32677000       0.31286000 </v>
    <v>       0.74995000       0.67323000       0.31286000 </v>
    <v>       0.25005000       0.32677000       0.56286000 </v>
    <v>       0.00005000       0.67323000       0.56286000 </v>
    <v>       0.49995000       0.32677000       0.81286000 </v>
    <v>       0.24995000       0.67323000       0.81286000 </v>
    <v>       0.75005000       0.32677000       0.56286000 </v>
    <v>       0.50005000       0.67323000       0.56286000 </v>
    <v>       0.99995000       0.32677000       0.81286000 </v>
    <v>       0.74995000       0.67323000       0.81286000 </v>
    <v>       0.49987000       0.07798000       0.06246000 </v>
    <v>       0.24987000       0.92202000       0.06246000 </v>
    <v>       0.25013000       0.07798000       0.31246000 </v>
    <v>       0.00013000       0.92202000       0.31246000 </v>
    <v>       0.99987000       0.07798000       0.06246000 </v>
    <v>       0.74987000       0.92202000       0.06246000 </v>
    <v>       0.75013000       0.07798000       0.31246000 </v>
    <v>       0.50013000       0.92202000       0.31246000 </v>
    <v>       0.49987000       0.07798000       0.56246000 </v>
    <v>       0.24987000       0.92202000       0.56246000 </v>
    <v>       0.25013000       0.07798000       0.81246000 </v>
    <v>       0.00013000       0.92202000       0.81246000 </v>
    <v>       0.99987000       0.07798000       0.56246000 </v>
    <v>       0.74987000       0.92202000       0.56246000 </v>
    <v>       0.75013000       0.07798000       0.81246000 </v>
    <v>       0.50013000       0.92202000       0.81246000 </v>
   </varray>
  </structure>
  <varray name="forces" >
   <v>      -0.55196060      -0.00333397      -0.20480894 </v>
   <v>       0.29272133       0.00764206       0.22390646 </v>
   <v>      -0.18944572       0.06488645      -0.36458175 </v>
   <v>      -0.35463636      -0.06643041      -0.35137814 </v>
   <v>      -0.28384313      -0.00564960      -0.29015960 </v>
   <v>       0.20825416      -0.06457760      -0.34933178 </v>
   <v>       0.36786105      -0.06066324       0.35707948 </v>
   <v>      -0.20280281      -0.06354936       0.38759863 </v>
   <v>      -0.37611299       0.06678548       0.35666149 </v>
   <v>       0.02235822       0.00028668      -0.29896942 </v>
   <v>       1.06061886      -0.00107027       0.60325364 </v>
   <v>      -0.50304043       0.00561910      -0.49217079 </v>
   <v>       0.55802384       0.00978400       0.52133973 </v>
   <v>       0.19203032       0.01881344       0.00079460 </v>
   <v>       0.14512425       1.03971816      -0.05218250 </v>
   <v>      -0.08048330      -1.02832196      -0.10366855 </v>
   <v>      -0.24448359      -0.03264785      -0.26924605 </v>
   <v>      -0.30021521      -1.03071568      -0.08445330 </v>
   <v>      -0.05778151      -0.03461338      -0.03836136 </v>
   <v>      -0.11149960       1.07180413      -0.33025635 </v>
   <v>       0.45941819      -0.00909377      -0.15117073 </v>
   <v>       0.19975994      -0.08420709      -0.00419833 </v>
   <v>      -0.07861477      -0.01370543      -0.26483983 </v>
   <v>       0.19705621       0.00467535       0.40839805 </v>
   <v>      -0.32853202      -0.02917331       0.44588792 </v>
   <v>      -0.29474234       1.08358179      -0.10895472 </v>
   <v>       0.14562237      -0.98856679       0.17303806 </v>
   <v>       0.18727783       0.00279690       0.17341352 </v>
   <v>      -0.03310621       0.01327564       0.13616197 </v>
   <v>      -0.12203029       0.23658036      -0.09422412 </v>
   <v>      -0.18165389      -0.22920070       0.00070887 </v>
   <v>       0.26478517       0.19325756       0.26519535 </v>
   <v>       0.02983417      -0.20845931       0.15903383 </v>
   <v>       0.10339607       0.19416409       0.08652954 </v>
   <v>       0.19118944      -0.19275779       0.01831586 </v>
   <v>      -0.32573681       0.11569375       0.09264469 </v>
   <v>       0.03836079      -0.10418277       0.19586028 </v>
   <v>       0.07268721       0.13831128       0.14691892 </v>
   <v>      -0.15592395      -0.04699448      -0.01037625 </v>
   <v>       0.13379946       0.12183616      -0.31936887 </v>
   <v>      -0.05305833      -0.17225073      -0.22213475 </v>
   <v>      -0.11321805       0.00861442      -0.10099357 </v>
   <v>       0.19936614      -0.10977829       0.03887332 </v>
   <v>      -0.01399241       0.14699050      -0.08346359 </v>
   <v>      -0.06623909      -0.10629854      -0.17604231 </v>
   <v>       0.75082326       0.83111936       0.60762878 </v>
   <v>      -0.66364992      -0.89742813       0.53462330 </v>
   <v>       0.61200964       0.86245394      -0.45269380 </v>
   <v>      -1.33881566       0.00376289      -0.03995222 </v>
   <v>      -0.15394330       0.02526310       0.00580061 </v>
   <v>       0.07785695       0.02716176       0.08279671 </v>
   <v>       0.46358092      -0.86035708       0.64320082 </v>
   <v>       0.23743485       0.03243008       0.23434167 </v>
   <v>       0.64615130      -0.85746339       0.45572135 </v>
   <v>       0.21929449      -0.02699181       1.12713581 </v>
   <v>      -1.07056027      -0.02016021      -1.19868063 </v>
   <v>       1.01738265      -0.06372785       0.07062081 </v>
   <v>      -0.16211398       0.22805144      -0.05272667 </v>
   <v>      -0.68274523       0.76910886      -0.72818009 </v>
   <v>      -1.12016477      -0.00872313      -0.03035698 </v>
   <v>       1.12106746       0.09662521      -1.28555811 </v>
  </varray>
  <varray name="stress" >
   <v>      -8.97676762      -0.08782271      -0.69838493 </v>
   <v>      -0.08782296     -14.13380536      -0.19094643 </v>
   <v>      -0.69838516      -0.19094627      -8.08724360 </v>
  </varray>
  <energy>
   <i name="e_fr_energy">   -312.01629874 </i>
   <i name="e_wo_entrp">   -312.01629874 </i>
   <i name="e_0_energy">      0.00000000 </i>
  </energy>
  <time name="totalsc"> 1440.67 1447.61</time>
  <eigenvalues>
   <array>
    <dimension dim="1">band</dimension>
    <dimension dim="2">kpoint</dimension>
    <dimension dim="3">spin</dimension>
    <field>eigene</field>
    <field>occ</field>
    <set>
     <set comment="spin 1">
      <set comment="kpoint 1">
       <r>  -40.4800    1.0000 </r>
       <r>  -40.0229    1.0000 </r>
       <r>  -40.0124    1.0000 </r>
       <r>  -39.8015    1.0000 </r>
       <r>  -39.7671    1.0000 </r>
       <r>  -39.7589    1.0000 </r>
       <r>  -39.6497    1.0000 </r>
       <r>  -39.5567    1.0000 </r>
       <r>  -39.3602    1.0000 </r>
       <r>  -39.2003    1.0000 </r>
       <r>  -18.9958    1.0000 </r>
       <r>  -18.9271    1.0000 </r>
       <r>  -18.9228    1.0000 </r>
       <r>  -18.9195    1.0000 </r>
       <r>  -18.9145    1.0000 </r>
       <r>  -18.8579    1.0000 </r>
       <r>  -18.8512    1.0000 </r>
       <r>  -18.8432    1.0000 </r>
       <r>  -18.8348    1.0000 </r>
       <r>  -18.8233    1.0000 </r>
       <r>  -18.8054    1.0000 </r>
       <r>  -18.7496    1.0000 </r>
       <r>  -18.7471    1.0000 </r>
       <r>  -18.7379    1.0000 </r>
       <r>  -18.7332    1.0000 </r>
       <r>  -18.7070    1.0000 </r>
       <r>  -18.6958    1.0000 </r>
       <r>  -18.6921    1.0000 </r>
       <r>  -18.6886    1.0000 </r>
       <r>  -18.6815    1.0000 </r>
       <r>  -18.6677    1.0000 </r>
       <r>  -18.6645    1.0000 </r>
       <r>  -18.6569    1.0000 </r>
       <r>  -18.6507    1.0000 </r>
       <r>  -18.6486    1.0000 </r>
       <r>  -18.6449    1.0000 </r>
       <r>  -18.6410    1.0000 </r>
       <r>  -18.6397    1.0000 </r>
       <r>  -18.6392    1.0000 </r>
       <r>  -18.6357    1.0000 </r>
       <r>  -18.6318    1.0000 </r>
       <r>  -18.6302    1.0000 </r>
       <r>  -18.6257    1.0000 </r>
       <r>  -18.6240    1.0000 </r>
       <r>  -18.6215    1.0000 </r>
       <r>  -18.6208    1.0000 </r>
       <r>  -18.6071    1.0000 </r>
       <r>  -18.6000    1.0000 </r>
       <r>  -18.5983    1.0000 </r>
       <r>  -18.5732    1.0000 </r>
       <r>  -18.5630    1.0000 </r>
       <r>  -18.5557    1.0000 </r>
       <r>  -18.5509    1.0000 </r>
       <r>  -18.5500    1.0000 </r>
       <r>  -18.5437    1.0000 </r>
       <r>  -18.5414    1.0000 </r>
       <r>  -18.5328    1.0000 </r>
       <r>  -18.5296    1.0000 </r>
       <r>  -18.5140    1.0000 </r>
       <r>  -18.4959    1.0000 </r>
       <r>  -18.4938    1.0000 </r>
       <r>  -18.4917    1.0000 </r>
       <r>  -18.4876    1.0000 </r>
       <r>  -18.4823    1.0000 </r>
       <r>  -18.4791    1.0000 </r>
       <r>  -18.4752    1.0000 </r>
       <r>  -18.4739    1.0000 </r>
       <r>  -18.4719    1.0000 </r>
       <r>  -18.4704    1.0000 </r>
       <r>  -18.4573    1.0000 </r>
       <r>  -18.4528    1.0000 </r>
       <r>  -18.4104    1.0000 </r>
       <r>  -18.3990    1.0000 </r>
       <r>  -18.3941    1.0000 </r>
       <r>  -18.3913    1.0000 </r>
       <r>  -18.3827    1.0000 </r>
       <r>  -18.3799    1.0000 </r>
       <r>  -18.3770    1.0000 </r>
       <r>  -18.3634    1.0000 </r>
       <r>  -18.3211    1.0000 </r>
       <r>  -18.3087    1.0000 </r>
       <r>  -18.2964    1.0000 </r>
       <r>  -18.2870    1.0000 </r>
       <r>  -18.2257    1.0000 </r>
       <r>  -18.1791    1.0000 </r>
       <r>  -18.1745    1.0000 </r>
       <r>  -18.1659    1.0000 </r>
       <r>  -18.1605    1.0000 </r>
       <r>  -18.1087    1.0000 </r>
       <r>  -18.1002    1.0000 </r>
       <r>  -13.6453    1.0000 </r>
       <r>  -13.5026    1.0000 </r>
       <r>  -13.4800    1.0000 </r>
       <r>  -12.8785    1.0000 </r>
       <r>  -12.8191    1.0000 </r>
       <r>  -12.7464    1.0000 </r>
       <r>  -12.7310    1.0000 </r>
       <r>  -12.7023    1.0000 </r>
       <r>  -12.6788    1.0000 </r>
       <r>  -12.6657    1.0000 </r>
       <r>  -12.6374    1.0000 </r>
       <r>  -12.6092    1.0000 </r>
       <r>  -12.5420    1.0000 </r>
       <r>  -11.9571    1.0000 </r>
       <r>  -11.9073    1.0000 </r>
       <r>  -11.8310    1.0000 </r>
       <r>   -9.3313    1.0000 </r>
       <r>   -9.0386    1.0000 </r>
       <r>   -8.5225    1.0000 </r>
       <r>   -8.5174    1.0000 </r>
       <r>   -8.4583    1.0000 </r>
       <r>   -8.4553    1.0000 </r>
       <r>   -8.3005    1.0000 </r>
       <r>   -8.2939    1.0000 </r>
       <r>   -8.2392    1.0000 </r>
       <r>   -8.2314    1.0000 </r>
       <r>   -8.0164    1.0000 </r>
       <r>   -7.9899    1.0000 </r>
       <r>   -7.9860    1.0000 </r>
       <r>   -7.9487    1.0000 </r>
       <r>   -7.3449    1.0000 </r>
       <r>   -7.3395    1.0000 </r>
       <r>   -6.3732    1.0000 </r>
       <r>   -6.3709    1.0000 </r>
       <r>   -6.3432    1.0000 </r>
       <r>   -6.3415    1.0000 </r>
       <r>   -5.5379    1.0000 </r>
       <r>   -5.5315    1.0000 </r>
       <r>   -5.3644    1.0000 </r>
       <r>   -5.3438    1.0000 </r>
       <r>   -5.2664    1.0000 </r>
       <r>   -5.2625    1.0000 </r>
       <r>   -5.1874    1.0000 </r>
       <r>   -5.1381    1.0000 </r>
       <r>   -5.0679    1.0000 </r>
       <r>   -5.0411    1.0000 </r>
       <r>   -3.7889    1.0000 </r>
       <r>   -3.6346    1.0000 </r>
       <r>   -1.4554    1.0000 </r>
       <r>   -1.3224    1.0000 </r>
       <r>   -1.0940    1.0000 </r>
       <r>   -1.0142    1.0000 </r>
       <r>   -0.5414    1.0000 </r>
       <r>   -0.5156    1.0000 </r>
       <r>   -0.4953    1.0000 </r>
       <r>   -0.4656    1.0000 </r>
       <r>   -0.1705    1.0000 </r>
       <r>   -0.1640    1.0000 </r>
       <r>   -0.1525    1.0000 </r>
       <r>   -0.1443    1.0000 </r>
       <r>   -0.0048    1.0000 </r>
       <r>    0.0321    1.0000 </r>
       <r>    0.2333    1.0000 </r>
       <r>    0.3479    1.0000 </r>
       <r>    0.4615    1.0000 </r>
       <r>    0.5100    1.0000 </r>
       <r>    0.5380    1.0000 </r>
       <r>    0.5906    1.0000 </r>
       <r>    0.6885    1.0000 </r>
       <r>    0.7334    1.0000 </r>
       <r>    0.7451    1.0000 </r>
       <r>    0.7682    1.0000 </r>
       <r>    0.7964    1.0000 </r>
       <r>    0.8302    1.0000 </r>
       <r>    0.8934    1.0000 </r>
       <r>    0.9635    1.0000 </r>
       <r>    0.9868    1.0000 </r>
       <r>    1.0426    1.0000 </r>
       <r>    1.0648    1.0000 </r>
       <r>    1.0842    1.0000 </r>
       <r>    1.1224    1.0000 </r>
       <r>    1.1596    1.0000 </r>
       <r>    1.2447    1.0000 </r>
       <r>    1.2787    1.0000 </r>
       <r>    1.3273    1.0000 </r>
       <r>    1.3711    1.0000 </r>
       <r>    1.3897    1.0000 </r>
       <r>    1.5006    1.0000 </r>
       <r>    1.5210    1.0000 </r>
       <r>    1.5817    1.0000 </r>
       <r>    1.6115    1.0000 </r>
       <r>    1.6277    1.0000 </r>
       <r>    1.6812    1.0000 </r>
       <r>    1.7375    1.0000 </r>
       <r>    1.7811    1.0000 </r>
       <r>    1.8383    1.0000 </r>
       <r>    1.8813    1.0000 </r>
       <r>    1.9154    1.0000 </r>
       <r>    1.9975    1.0000 </r>
       <r>    2.0537    1.0000 </r>
       <r>    2.0807    1.0000 </r>
       <r>    2.2041    1.0000 </r>
       <r>    2.2178    1.0000 </r>
       <r>    2.3095    1.0000 </r>
       <r>    2.3611    1.0000 </r>
       <r>    2.4069    1.0000 </r>
       <r>    2.4173    1.0000 </r>
       <r>    2.5449    1.0000 </r>
       <r>    2.5709    1.0000 </r>
       <r>    2.5774    1.0000 </r>
       <r>    2.5829    1.0000 </r>
       <r>    2.5985    1.0000 </r>
       <r>    2.6154    1.0000 </r>
       <r>    2.6333    1.0000 </r>
       <r>    2.6741    1.0000 </r>
       <r>    2.7321    1.0000 </r>
       <r>    2.7336    1.0000 </r>
       <r>    2.7667    1.0000 </r>
       <r>    2.8291    1.0000 </r>
       <r>    2.8670    1.0000 </r>
       <r>    2.8936    1.0000 </r>
       <r>    2.9105    1.0000 </r>
       <r>    2.9843    1.0000 </r>
       <r>    3.0249    1.0000 </r>
       <r>    3.0313    1.0000 </r>
       <r>    3.0712    1.0000 </r>
       <r>    3.0989    1.0000 </r>
       <r>    3.1408    1.0000 </r>
       <r>    3.1551    1.0000 </r>
       <r>    3.1755    1.0000 </r>
       <r>    3.1942    1.0000 </r>
       <r>    3.2234    1.0000 </r>
       <r>    3.2320    1.0000 </r>
       <r>    3.2858    1.0000 </r>
       <r>    3.3375    1.0000 </r>
       <r>    3.3776    1.0000 </r>
       <r>    3.4416    1.0000 </r>
       <r>    3.4872    1.0000 </r>
       <r>    3.5535    1.0000 </r>
       <r>    3.6041    1.0000 </r>
       <r>    4.1994    1.0000 </r>
       <r>    4.2245    1.0000 </r>
       <r>    4.2410    1.0000 </r>
       <r>    4.2471    1.0000 </r>
       <r>    5.0675    0.0000 </r>
       <r>    5.0779    0.0000 </r>
       <r>    5.1524    0.0000 </r>
       <r>    5.1645    0.0000 </r>
       <r>    5.7445    0.0000 </r>
       <r>    5.7476    0.0000 </r>
       <r>    5.7948    0.0000 </r>
       <r>    5.8213    0.0000 </r>
       <r>    6.1233    0.0000 </r>
       <r>    6.1365    0.0000 </r>
       <r>    6.1534    0.0000 </r>
       <r>    6.1558    0.0000 </r>
       <r>    6.2587    0.0000 </r>
       <r>    6.2747    0.0000 </r>
       <r>    6.2775    0.0000 </r>
       <r>    6.2915    0.0000 </r>
       <r>    7.0785    0.0000 </r>
       <r>    7.1051    0.0000 </r>
       <r>    7.2651    0.0000 </r>
       <r>    7.3055    0.0000 </r>
       <r>    7.8081    0.0000 </r>
       <r>    7.8403    0.0000 </r>
       <r>    7.9275    0.0000 </r>
       <r>    7.9627    0.0000 </r>
       <r>    7.9915    0.0000 </r>
       <r>    8.0363    0.0000 </r>
       <r>    8.1343    0.0000 </r>
       <r>    8.1836    0.0000 </r>
       <r>    8.4442    0.0000 </r>
       <r>    8.6382    0.0000 </r>
       <r>    8.7207    0.0000 </r>
       <r>    8.8136    0.0000 </r>
       <r>    8.8232    0.0000 </r>
       <r>    8.8423    0.0000 </r>
       <r>    8.9138    0.0000 </r>
       <r>    8.9430    0.0000 </r>
       <r>    9.0268    0.0000 </r>
       <r>    9.0545    0.0000 </r>
       <r>    9.0803    0.0000 </r>
       <r>    9.1459    0.0000 </r>
       <r>    9.1763    0.0000 </r>
       <r>    9.1892    0.0000 </r>
       <r>    9.2119    0.0000 </r>
       <r>    9.2602    0.0000 </r>
       <r>    9.4030    0.0000 </r>
       <r>    9.5808    0.0000 </r>
      </set>
      <set comment="kpoint 2">
       <r>  -40.4800    1.0000 </r>
       <r>  -40.0229    1.0000 </r>
       <r>  -40.0124    1.0000 </r>
       <r>  -39.8015    1.0000 </r>
       <r>  -39.7671    1.0000 </r>
       <r>  -39.7589    1.0000 </r>
       <r>  -39.6497    1.0000 </r>
       <r>  -39.5566    1.0000 </r>
       <r>  -39.3602    1.0000 </r>
       <r>  -39.2003    1.0000 </r>
       <r>  -18.9958    1.0000 </r>
       <r>  -18.9270    1.0000 </r>
       <r>  -18.9227    1.0000 </r>
       <r>  -18.9195    1.0000 </r>
       <r>  -18.9145    1.0000 </r>
       <r>  -18.8577    1.0000 </r>
       <r>  -18.8512    1.0000 </r>
       <r>  -18.8433    1.0000 </r>
       <r>  -18.8348    1.0000 </r>
       <r>  -18.8233    1.0000 </r>
       <r>  -18.8054    1.0000 </r>
       <r>  -18.7496    1.0000 </r>
       <r>  -18.7471    1.0000 </r>
       <r>  -18.7379    1.0000 </r>
       <r>  -18.7332    1.0000 </r>
       <r>  -18.7070    1.0000 </r>
       <r>  -18.6958    1.0000 </r>
       <r>  -18.6921    1.0000 </r>
       <r>  -18.6885    1.0000 </r>
       <r>  -18.6816    1.0000 </r>
       <r>  -18.6677    1.0000 </r>
       <r>  -18.6609    1.0000 </r>
       <r>  -18.6560    1.0000 </r>
       <r>  -18.6528    1.0000 </r>
       <r>  -18.6469    1.0000 </r>
       <r>  -18.6450    1.0000 </r>
       <r>  -18.6438    1.0000 </r>
       <r>  -18.6417    1.0000 </r>
       <r>  -18.6401    1.0000 </r>
       <r>  -18.6384    1.0000 </r>
       <r>  -18.6365    1.0000 </r>
       <r>  -18.6278    1.0000 </r>
       <r>  -18.6247    1.0000 </r>
       <r>  -18.6240    1.0000 </r>
       <r>  -18.6213    1.0000 </r>
       <r>  -18.6085    1.0000 </r>
       <r>  -18.6071    1.0000 </r>
       <r>  -18.6052    1.0000 </r>
       <r>  -18.5997    1.0000 </r>
       <r>  -18.5733    1.0000 </r>
       <r>  -18.5630    1.0000 </r>
       <r>  -18.5556    1.0000 </r>
       <r>  -18.5509    1.0000 </r>
       <r>  -18.5500    1.0000 </r>
       <r>  -18.5437    1.0000 </r>
       <r>  -18.5415    1.0000 </r>
       <r>  -18.5328    1.0000 </r>
       <r>  -18.5296    1.0000 </r>
       <r>  -18.5140    1.0000 </r>
       <r>  -18.4959    1.0000 </r>
       <r>  -18.4938    1.0000 </r>
       <r>  -18.4917    1.0000 </r>
       <r>  -18.4873    1.0000 </r>
       <r>  -18.4830    1.0000 </r>
       <r>  -18.4785    1.0000 </r>
       <r>  -18.4756    1.0000 </r>
       <r>  -18.4739    1.0000 </r>
       <r>  -18.4716    1.0000 </r>
       <r>  -18.4704    1.0000 </r>
       <r>  -18.4574    1.0000 </r>
       <r>  -18.4528    1.0000 </r>
       <r>  -18.4104    1.0000 </r>
       <r>  -18.3990    1.0000 </r>
       <r>  -18.3941    1.0000 </r>
       <r>  -18.3914    1.0000 </r>
       <r>  -18.3827    1.0000 </r>
       <r>  -18.3798    1.0000 </r>
       <r>  -18.3770    1.0000 </r>
       <r>  -18.3634    1.0000 </r>
       <r>  -18.3211    1.0000 </r>
       <r>  -18.3087    1.0000 </r>
       <r>  -18.2964    1.0000 </r>
       <r>  -18.2870    1.0000 </r>
       <r>  -18.2257    1.0000 </r>
       <r>  -18.1791    1.0000 </r>
       <r>  -18.1745    1.0000 </r>
       <r>  -18.1659    1.0000 </r>
       <r>  -18.1605    1.0000 </r>
       <r>  -18.1087    1.0000 </r>
       <r>  -18.1002    1.0000 </r>
       <r>  -13.6447    1.0000 </r>
       <r>  -13.5031    1.0000 </r>
       <r>  -13.4801    1.0000 </r>
       <r>  -12.8680    1.0000 </r>
       <r>  -12.8364    1.0000 </r>
       <r>  -12.7467    1.0000 </r>
       <r>  -12.7202    1.0000 </r>
       <r>  -12.6986    1.0000 </r>
       <r>  -12.6875    1.0000 </r>
       <r>  -12.6630    1.0000 </r>
       <r>  -12.6389    1.0000 </r>
       <r>  -12.6090    1.0000 </r>
       <r>  -12.5421    1.0000 </r>
       <r>  -11.9573    1.0000 </r>
       <r>  -11.9075    1.0000 </r>
       <r>  -11.8308    1.0000 </r>
       <r>   -9.1866    1.0000 </r>
       <r>   -9.0304    1.0000 </r>
       <r>   -8.9137    1.0000 </r>
       <r>   -8.7544    1.0000 </r>
       <r>   -8.3913    1.0000 </r>
       <r>   -8.3768    1.0000 </r>
       <r>   -8.2510    1.0000 </r>
       <r>   -8.2446    1.0000 </r>
       <r>   -8.1883    1.0000 </r>
       <r>   -8.1808    1.0000 </r>
       <r>   -8.0515    1.0000 </r>
       <r>   -8.0430    1.0000 </r>
       <r>   -7.7348    1.0000 </r>
       <r>   -7.6273    1.0000 </r>
       <r>   -7.6163    1.0000 </r>
       <r>   -7.5081    1.0000 </r>
       <r>   -6.0374    1.0000 </r>
       <r>   -6.0160    1.0000 </r>
       <r>   -5.9269    1.0000 </r>
       <r>   -5.8349    1.0000 </r>
       <r>   -5.8168    1.0000 </r>
       <r>   -5.7928    1.0000 </r>
       <r>   -5.7072    1.0000 </r>
       <r>   -5.6702    1.0000 </r>
       <r>   -5.6415    1.0000 </r>
       <r>   -5.6004    1.0000 </r>
       <r>   -5.4683    1.0000 </r>
       <r>   -5.4094    1.0000 </r>
       <r>   -4.4871    1.0000 </r>
       <r>   -4.3300    1.0000 </r>
       <r>   -4.3212    1.0000 </r>
       <r>   -4.1541    1.0000 </r>
       <r>   -1.2486    1.0000 </r>
       <r>   -1.0381    1.0000 </r>
       <r>   -0.8917    1.0000 </r>
       <r>   -0.7156    1.0000 </r>
       <r>   -0.5296    1.0000 </r>
       <r>   -0.3314    1.0000 </r>
       <r>   -0.0810    1.0000 </r>
       <r>   -0.0247    1.0000 </r>
       <r>    0.0322    1.0000 </r>
       <r>    0.0644    1.0000 </r>
       <r>    0.1082    1.0000 </r>
       <r>    0.1868    1.0000 </r>
       <r>    0.2101    1.0000 </r>
       <r>    0.2633    1.0000 </r>
       <r>    0.3295    1.0000 </r>
       <r>    0.3678    1.0000 </r>
       <r>    0.4388    1.0000 </r>
       <r>    0.5049    1.0000 </r>
       <r>    0.5571    1.0000 </r>
       <r>    0.5859    1.0000 </r>
       <r>    0.6273    1.0000 </r>
       <r>    0.6469    1.0000 </r>
       <r>    0.6652    1.0000 </r>
       <r>    0.6946    1.0000 </r>
       <r>    0.7229    1.0000 </r>
       <r>    0.7919    1.0000 </r>
       <r>    0.8285    1.0000 </r>
       <r>    0.8919    1.0000 </r>
       <r>    0.9264    1.0000 </r>
       <r>    1.0303    1.0000 </r>
       <r>    1.0408    1.0000 </r>
       <r>    1.1020    1.0000 </r>
       <r>    1.1841    1.0000 </r>
       <r>    1.2366    1.0000 </r>
       <r>    1.2617    1.0000 </r>
       <r>    1.2735    1.0000 </r>
       <r>    1.3013    1.0000 </r>
       <r>    1.3365    1.0000 </r>
       <r>    1.3643    1.0000 </r>
       <r>    1.4594    1.0000 </r>
       <r>    1.4906    1.0000 </r>
       <r>    1.5122    1.0000 </r>
       <r>    1.5228    1.0000 </r>
       <r>    1.5764    1.0000 </r>
       <r>    1.6357    1.0000 </r>
       <r>    1.6904    1.0000 </r>
       <r>    1.7217    1.0000 </r>
       <r>    1.7801    1.0000 </r>
       <r>    1.8296    1.0000 </r>
       <r>    1.8445    1.0000 </r>
       <r>    1.9063    1.0000 </r>
       <r>    1.9641    1.0000 </r>
       <r>    2.0210    1.0000 </r>
       <r>    2.0427    1.0000 </r>
       <r>    2.0535    1.0000 </r>
       <r>    2.1218    1.0000 </r>
       <r>    2.1777    1.0000 </r>
       <r>    2.1959    1.0000 </r>
       <r>    2.2504    1.0000 </r>
       <r>    2.2810    1.0000 </r>
       <r>    2.3167    1.0000 </r>
       <r>    2.3810    1.0000 </r>
       <r>    2.3932    1.0000 </r>
       <r>    2.4483    1.0000 </r>
       <r>    2.5019    1.0000 </r>
       <r>    2.5348    1.0000 </r>
       <r>    2.5969    1.0000 </r>
       <r>    2.5993    1.0000 </r>
       <r>    2.6120    1.0000 </r>
       <r>    2.6651    1.0000 </r>
       <r>    2.7006    1.0000 </r>
       <r>    2.7584    1.0000 </r>
       <r>    2.7762    1.0000 </r>
       <r>    2.8175    1.0000 </r>
       <r>    2.8315    1.0000 </r>
       <r>    2.8819    1.0000 </r>
       <r>    2.9030    1.0000 </r>
       <r>    2.9584    1.0000 </r>
       <r>    3.0193    1.0000 </r>
       <r>    3.0767    1.0000 </r>
       <r>    3.0821    1.0000 </r>
       <r>    3.1154    1.0000 </r>
       <r>    3.1407    1.0000 </r>
       <r>    3.2004    1.0000 </r>
       <r>    3.2282    1.0000 </r>
       <r>    3.2587    1.0000 </r>
       <r>    3.3206    1.0000 </r>
       <r>    3.3898    1.0000 </r>
       <r>    3.4755    1.0000 </r>
       <r>    3.5060    1.0000 </r>
       <r>    3.5478    1.0000 </r>
       <r>    3.5774    1.0000 </r>
       <r>    3.6245    1.0000 </r>
       <r>    3.6881    1.0000 </r>
       <r>    3.7127    1.0000 </r>
       <r>    3.8090    1.0000 </r>
       <r>    5.5706    0.0000 </r>
       <r>    5.5726    0.0000 </r>
       <r>    5.7180    0.0000 </r>
       <r>    5.7308    0.0000 </r>
       <r>    5.7530    0.0000 </r>
       <r>    5.7681    0.0000 </r>
       <r>    5.9050    0.0000 </r>
       <r>    5.9202    0.0000 </r>
       <r>    7.1587    0.0000 </r>
       <r>    7.2023    0.0000 </r>
       <r>    7.2323    0.0000 </r>
       <r>    7.3058    0.0000 </r>
       <r>    7.3599    0.0000 </r>
       <r>    7.3995    0.0000 </r>
       <r>    7.4521    0.0000 </r>
       <r>    7.4624    0.0000 </r>
       <r>    7.4847    0.0000 </r>
       <r>    7.5161    0.0000 </r>
       <r>    7.5833    0.0000 </r>
       <r>    7.6120    0.0000 </r>
       <r>    7.8118    0.0000 </r>
       <r>    7.8313    0.0000 </r>
       <r>    7.8518    0.0000 </r>
       <r>    7.8785    0.0000 </r>
       <r>    7.9141    0.0000 </r>
       <r>    7.9150    0.0000 </r>
       <r>    7.9477    0.0000 </r>
       <r>    7.9883    0.0000 </r>
       <r>    7.9976    0.0000 </r>
       <r>    8.0437    0.0000 </r>
       <r>    8.0596    0.0000 </r>
       <r>    8.1618    0.0000 </r>
       <r>    8.2786    0.0000 </r>
       <r>    8.3665    0.0000 </r>
       <r>    8.4781    0.0000 </r>
       <r>    8.6401    0.0000 </r>
       <r>    8.6630    0.0000 </r>
       <r>    8.7266    0.0000 </r>
       <r>    8.7493    0.0000 </r>
       <r>    8.7667    0.0000 </r>
       <r>    8.7895    0.0000 </r>
       <r>    8.8907    0.0000 </r>
       <r>    8.9492    0.0000 </r>
       <r>    8.9581    0.0000 </r>
       <r>    9.1070    0.0000 </r>
       <r>    9.2700    0.0000 </r>
      </set>
      <set comment="kpoint 3">
       <r>  -40.4800    1.0000 </r>
       <r>  -40.0229    1.0000 </r>
       <r>  -40.0124    1.0000 </r>
       <r>  -39.8015    1.0000 </r>
       <r>  -39.7671    1.0000 </r>
       <r>  -39.7589    1.0000 </r>
       <r>  -39.6497    1.0000 </r>
       <r>  -39.5566    1.0000 </r>
       <r>  -39.3602    1.0000 </r>
       <r>  -39.2003    1.0000 </r>
       <r>  -18.9958    1.0000 </r>
       <r>  -18.9270    1.0000 </r>
       <r>  -18.9227    1.0000 </r>
       <r>  -18.9196    1.0000 </r>
       <r>  -18.9145    1.0000 </r>
       <r>  -18.8579    1.0000 </r>
       <r>  -18.8512    1.0000 </r>
       <r>  -18.8432    1.0000 </r>
       <r>  -18.8348    1.0000 </r>
       <r>  -18.8233    1.0000 </r>
       <r>  -18.8054    1.0000 </r>
       <r>  -18.7496    1.0000 </r>
       <r>  -18.7471    1.0000 </r>
       <r>  -18.7379    1.0000 </r>
       <r>  -18.7332    1.0000 </r>
       <r>  -18.7069    1.0000 </r>
       <r>  -18.6958    1.0000 </r>
       <r>  -18.6922    1.0000 </r>
       <r>  -18.6886    1.0000 </r>
       <r>  -18.6816    1.0000 </r>
       <r>  -18.6677    1.0000 </r>
       <r>  -18.6645    1.0000 </r>
       <r>  -18.6569    1.0000 </r>
       <r>  -18.6507    1.0000 </r>
       <r>  -18.6485    1.0000 </r>
       <r>  -18.6449    1.0000 </r>
       <r>  -18.6410    1.0000 </r>
       <r>  -18.6397    1.0000 </r>
       <r>  -18.6392    1.0000 </r>
       <r>  -18.6357    1.0000 </r>
       <r>  -18.6318    1.0000 </r>
       <r>  -18.6302    1.0000 </r>
       <r>  -18.6257    1.0000 </r>
       <r>  -18.6240    1.0000 </r>
       <r>  -18.6215    1.0000 </r>
       <r>  -18.6208    1.0000 </r>
       <r>  -18.6071    1.0000 </r>
       <r>  -18.6000    1.0000 </r>
       <r>  -18.5983    1.0000 </r>
       <r>  -18.5732    1.0000 </r>
       <r>  -18.5630    1.0000 </r>
       <r>  -18.5557    1.0000 </r>
       <r>  -18.5509    1.0000 </r>
       <r>  -18.5499    1.0000 </r>
       <r>  -18.5437    1.0000 </r>
       <r>  -18.5414    1.0000 </r>
       <r>  -18.5328    1.0000 </r>
       <r>  -18.5296    1.0000 </r>
       <r>  -18.5140    1.0000 </r>
       <r>  -18.4959    1.0000 </r>
       <r>  -18.4938    1.0000 </r>
       <r>  -18.4917    1.0000 </r>
       <r>  -18.4876    1.0000 </r>
       <r>  -18.4823    1.0000 </r>
       <r>  -18.4791    1.0000 </r>
       <r>  -18.4752    1.0000 </r>
       <r>  -18.4739    1.0000 </r>
       <r>  -18.4719    1.0000 </r>
       <r>  -18.4704    1.0000 </r>
       <r>  -18.4573    1.0000 </r>
       <r>  -18.4528    1.0000 </r>
       <r>  -18.4104    1.0000 </r>
       <r>  -18.3990    1.0000 </r>
       <r>  -18.3941    1.0000 </r>
       <r>  -18.3913    1.0000 </r>
       <r>  -18.3827    1.0000 </r>
       <r>  -18.3799    1.0000 </r>
       <r>  -18.3770    1.0000 </r>
       <r>  -18.3634    1.0000 </r>
       <r>  -18.3210    1.0000 </r>
       <r>  -18.3087    1.0000 </r>
       <r>  -18.2964    1.0000 </r>
       <r>  -18.2870    1.0000 </r>
       <r>  -18.2257    1.0000 </r>
       <r>  -18.1791    1.0000 </r>
       <r>  -18.1745    1.0000 </r>
       <r>  -18.1659    1.0000 </r>
       <r>  -18.1605    1.0000 </r>
       <r>  -18.1087    1.0000 </r>
       <r>  -18.1002    1.0000 </r>
       <r>  -13.6451    1.0000 </r>
       <r>  -13.5026    1.0000 </r>
       <r>  -13.4803    1.0000 </r>
       <r>  -12.8771    1.0000 </r>
       <r>  -12.8187    1.0000 </r>
       <r>  -12.7467    1.0000 </r>
       <r>  -12.7311    1.0000 </r>
       <r>  -12.7027    1.0000 </r>
       <r>  -12.6788    1.0000 </r>
       <r>  -12.6658    1.0000 </r>
       <r>  -12.6374    1.0000 </r>
       <r>  -12.6102    1.0000 </r>
       <r>  -12.5426    1.0000 </r>
       <r>  -11.9565    1.0000 </r>
       <r>  -11.9074    1.0000 </r>
       <r>  -11.8325    1.0000 </r>
       <r>   -9.3222    1.0000 </r>
       <r>   -9.0446    1.0000 </r>
       <r>   -8.5409    1.0000 </r>
       <r>   -8.5353    1.0000 </r>
       <r>   -8.4752    1.0000 </r>
       <r>   -8.4728    1.0000 </r>
       <r>   -8.2799    1.0000 </r>
       <r>   -8.2747    1.0000 </r>
       <r>   -8.2213    1.0000 </r>
       <r>   -8.2118    1.0000 </r>
       <r>   -8.0204    1.0000 </r>
       <r>   -7.9931    1.0000 </r>
       <r>   -7.9887    1.0000 </r>
       <r>   -7.9511    1.0000 </r>
       <r>   -7.3477    1.0000 </r>
       <r>   -7.3424    1.0000 </r>
       <r>   -6.3650    1.0000 </r>
       <r>   -6.3598    1.0000 </r>
       <r>   -6.3338    1.0000 </r>
       <r>   -6.3316    1.0000 </r>
       <r>   -5.5405    1.0000 </r>
       <r>   -5.5370    1.0000 </r>
       <r>   -5.3971    1.0000 </r>
       <r>   -5.3857    1.0000 </r>
       <r>   -5.2887    1.0000 </r>
       <r>   -5.2869    1.0000 </r>
       <r>   -5.1309    1.0000 </r>
       <r>   -5.1001    1.0000 </r>
       <r>   -5.0172    1.0000 </r>
       <r>   -5.0006    1.0000 </r>
       <r>   -3.8610    1.0000 </r>
       <r>   -3.5512    1.0000 </r>
       <r>   -1.3500    1.0000 </r>
       <r>   -1.2806    1.0000 </r>
       <r>   -1.2401    1.0000 </r>
       <r>   -1.0702    1.0000 </r>
       <r>   -0.4347    1.0000 </r>
       <r>   -0.4194    1.0000 </r>
       <r>   -0.4030    1.0000 </r>
       <r>   -0.3927    1.0000 </r>
       <r>   -0.3584    1.0000 </r>
       <r>   -0.3416    1.0000 </r>
       <r>   -0.2898    1.0000 </r>
       <r>   -0.2582    1.0000 </r>
       <r>   -0.1732    1.0000 </r>
       <r>   -0.0480    1.0000 </r>
       <r>   -0.0299    1.0000 </r>
       <r>    0.2063    1.0000 </r>
       <r>    0.2642    1.0000 </r>
       <r>    0.3268    1.0000 </r>
       <r>    0.3401    1.0000 </r>
       <r>    0.5283    1.0000 </r>
       <r>    0.5462    1.0000 </r>
       <r>    0.5914    1.0000 </r>
       <r>    0.6501    1.0000 </r>
       <r>    0.7538    1.0000 </r>
       <r>    0.7983    1.0000 </r>
       <r>    0.8218    1.0000 </r>
       <r>    0.8326    1.0000 </r>
       <r>    0.8657    1.0000 </r>
       <r>    0.9813    1.0000 </r>
       <r>    1.0565    1.0000 </r>
       <r>    1.1055    1.0000 </r>
       <r>    1.1340    1.0000 </r>
       <r>    1.2313    1.0000 </r>
       <r>    1.2857    1.0000 </r>
       <r>    1.3711    1.0000 </r>
       <r>    1.4033    1.0000 </r>
       <r>    1.4162    1.0000 </r>
       <r>    1.4464    1.0000 </r>
       <r>    1.5274    1.0000 </r>
       <r>    1.5644    1.0000 </r>
       <r>    1.6600    1.0000 </r>
       <r>    1.6894    1.0000 </r>
       <r>    1.7802    1.0000 </r>
       <r>    1.8239    1.0000 </r>
       <r>    1.8666    1.0000 </r>
       <r>    1.8723    1.0000 </r>
       <r>    1.9442    1.0000 </r>
       <r>    1.9683    1.0000 </r>
       <r>    1.9825    1.0000 </r>
       <r>    2.0243    1.0000 </r>
       <r>    2.1034    1.0000 </r>
       <r>    2.1138    1.0000 </r>
       <r>    2.1529    1.0000 </r>
       <r>    2.2250    1.0000 </r>
       <r>    2.2739    1.0000 </r>
       <r>    2.3565    1.0000 </r>
       <r>    2.4340    1.0000 </r>
       <r>    2.4621    1.0000 </r>
       <r>    2.5063    1.0000 </r>
       <r>    2.5152    1.0000 </r>
       <r>    2.5573    1.0000 </r>
       <r>    2.5752    1.0000 </r>
       <r>    2.5868    1.0000 </r>
       <r>    2.5936    1.0000 </r>
       <r>    2.6021    1.0000 </r>
       <r>    2.6164    1.0000 </r>
       <r>    2.6428    1.0000 </r>
       <r>    2.7164    1.0000 </r>
       <r>    2.7323    1.0000 </r>
       <r>    2.7364    1.0000 </r>
       <r>    2.8172    1.0000 </r>
       <r>    2.8539    1.0000 </r>
       <r>    2.9073    1.0000 </r>
       <r>    2.9361    1.0000 </r>
       <r>    2.9471    1.0000 </r>
       <r>    2.9861    1.0000 </r>
       <r>    2.9910    1.0000 </r>
       <r>    3.0065    1.0000 </r>
       <r>    3.0558    1.0000 </r>
       <r>    3.0745    1.0000 </r>
       <r>    3.0957    1.0000 </r>
       <r>    3.1608    1.0000 </r>
       <r>    3.2632    1.0000 </r>
       <r>    3.3192    1.0000 </r>
       <r>    3.3826    1.0000 </r>
       <r>    3.4189    1.0000 </r>
       <r>    3.4334    1.0000 </r>
       <r>    3.4481    1.0000 </r>
       <r>    3.4653    1.0000 </r>
       <r>    3.5381    1.0000 </r>
       <r>    3.5810    1.0000 </r>
       <r>    3.6024    1.0000 </r>
       <r>    4.2470    1.0000 </r>
       <r>    4.2762    1.0000 </r>
       <r>    4.2923    1.0000 </r>
       <r>    4.2996    1.0000 </r>
       <r>    5.1413    0.0000 </r>
       <r>    5.1503    0.0000 </r>
       <r>    5.2146    0.0000 </r>
       <r>    5.2278    0.0000 </r>
       <r>    5.7548    0.0000 </r>
       <r>    5.7561    0.0000 </r>
       <r>    5.8025    0.0000 </r>
       <r>    5.8288    0.0000 </r>
       <r>    6.1817    0.0000 </r>
       <r>    6.1915    0.0000 </r>
       <r>    6.2014    0.0000 </r>
       <r>    6.2034    0.0000 </r>
       <r>    6.2676    0.0000 </r>
       <r>    6.2864    0.0000 </r>
       <r>    6.2926    0.0000 </r>
       <r>    6.3062    0.0000 </r>
       <r>    6.7087    0.0000 </r>
       <r>    6.7894    0.0000 </r>
       <r>    6.9974    0.0000 </r>
       <r>    7.0495    0.0000 </r>
       <r>    7.2294    0.0000 </r>
       <r>    7.3538    0.0000 </r>
       <r>    7.4600    0.0000 </r>
       <r>    7.5246    0.0000 </r>
       <r>    7.8582    0.0000 </r>
       <r>    7.8714    0.0000 </r>
       <r>    7.8880    0.0000 </r>
       <r>    7.9857    0.0000 </r>
       <r>    8.0408    0.0000 </r>
       <r>    8.3595    0.0000 </r>
       <r>    8.3825    0.0000 </r>
       <r>    8.4562    0.0000 </r>
       <r>    8.6808    0.0000 </r>
       <r>    8.7648    0.0000 </r>
       <r>    8.9211    0.0000 </r>
       <r>    8.9467    0.0000 </r>
       <r>    8.9888    0.0000 </r>
       <r>    9.0469    0.0000 </r>
       <r>    9.1048    0.0000 </r>
       <r>    9.1152    0.0000 </r>
       <r>    9.1286    0.0000 </r>
       <r>    9.1580    0.0000 </r>
       <r>    9.1760    0.0000 </r>
       <r>    9.2079    0.0000 </r>
       <r>    9.5162    0.0000 </r>
       <r>    9.7115    0.0000 </r>
      </set>
      <set comment="kpoint 4">
       <r>  -40.4800    1.0000 </r>
       <r>  -40.0229    1.0000 </r>
       <r>  -40.0124    1.0000 </r>
       <r>  -39.8015    1.0000 </r>
       <r>  -39.7671    1.0000 </r>
       <r>  -39.7589    1.0000 </r>
       <r>  -39.6497    1.0000 </r>
       <r>  -39.5566    1.0000 </r>
       <r>  -39.3602    1.0000 </r>
       <r>  -39.2003    1.0000 </r>
       <r>  -18.9958    1.0000 </r>
       <r>  -18.9270    1.0000 </r>
       <r>  -18.9226    1.0000 </r>
       <r>  -18.9196    1.0000 </r>
       <r>  -18.9145    1.0000 </r>
       <r>  -18.8577    1.0000 </r>
       <r>  -18.8512    1.0000 </r>
       <r>  -18.8433    1.0000 </r>
       <r>  -18.8348    1.0000 </r>
       <r>  -18.8233    1.0000 </r>
       <r>  -18.8054    1.0000 </r>
       <r>  -18.7496    1.0000 </r>
       <r>  -18.7471    1.0000 </r>
       <r>  -18.7379    1.0000 </r>
       <r>  -18.7332    1.0000 </r>
       <r>  -18.7070    1.0000 </r>
       <r>  -18.6958    1.0000 </r>
       <r>  -18.6921    1.0000 </r>
       <r>  -18.6885    1.0000 </r>
       <r>  -18.6816    1.0000 </r>
       <r>  -18.6677    1.0000 </r>
       <r>  -18.6608    1.0000 </r>
       <r>  -18.6560    1.0000 </r>
       <r>  -18.6528    1.0000 </r>
       <r>  -18.6469    1.0000 </r>
       <r>  -18.6450    1.0000 </r>
       <r>  -18.6438    1.0000 </r>
       <r>  -18.6417    1.0000 </r>
       <r>  -18.6401    1.0000 </r>
       <r>  -18.6384    1.0000 </r>
       <r>  -18.6365    1.0000 </r>
       <r>  -18.6278    1.0000 </r>
       <r>  -18.6247    1.0000 </r>
       <r>  -18.6240    1.0000 </r>
       <r>  -18.6213    1.0000 </r>
       <r>  -18.6085    1.0000 </r>
       <r>  -18.6071    1.0000 </r>
       <r>  -18.6052    1.0000 </r>
       <r>  -18.5997    1.0000 </r>
       <r>  -18.5733    1.0000 </r>
       <r>  -18.5630    1.0000 </r>
       <r>  -18.5556    1.0000 </r>
       <r>  -18.5509    1.0000 </r>
       <r>  -18.5499    1.0000 </r>
       <r>  -18.5437    1.0000 </r>
       <r>  -18.5415    1.0000 </r>
       <r>  -18.5328    1.0000 </r>
       <r>  -18.5296    1.0000 </r>
       <r>  -18.5140    1.0000 </r>
       <r>  -18.4959    1.0000 </r>
       <r>  -18.4938    1.0000 </r>
       <r>  -18.4917    1.0000 </r>
       <r>  -18.4873    1.0000 </r>
       <r>  -18.4830    1.0000 </r>
       <r>  -18.4785    1.0000 </r>
       <r>  -18.4756    1.0000 </r>
       <r>  -18.4739    1.0000 </r>
       <r>  -18.4716    1.0000 </r>
       <r>  -18.4704    1.0000 </r>
       <r>  -18.4574    1.0000 </r>
[...]
       <r>    8.8621    0.0000 </r>
       <r>    8.9065    0.0000 </r>
       <r>    8.9148    0.0000 </r>
       <r>    8.9350    0.0000 </r>
       <r>    8.9605    0.0000 </r>
      </set>
     </set>
    </set>
   </array>
  </eigenvalues>
  <separator name="orbital magnetization" >
   <v name="MAGDIPOLOUT">      0.00000000      0.00000000      0.00000000</v>
  </separator>
  <dos>
   <i name="efermi">      4.35354802 </i>
   <total>
    <array>
     <dimension dim="1">gridpoints</dimension>
     <dimension dim="2">spin</dimension>
     <field>energy</field>
     <field>total</field>
     <field>integrated</field>
     <set>
      <set comment="spin 1">
       <r>   -42.9896     0.0000     0.0000 </r>
       <r>   -42.8056     0.0000     0.0000 </r>
       <r>   -42.6215     0.0000     0.0000 </r>
       <r>   -42.4375     0.0000     0.0000 </r>
       <r>   -42.2534     0.0000     0.0000 </r>
       <r>   -42.0694     0.0000     0.0000 </r>
       <r>   -41.8854     0.0000     0.0000 </r>
       <r>   -41.7013     0.0000     0.0000 </r>
       <r>   -41.5173     0.0000     0.0000 </r>
       <r>   -41.3333     0.0000     0.0000 </r>
       <r>   -41.1492     0.0000     0.0000 </r>
       <r>   -40.9652     0.0000     0.0000 </r>
       <r>   -40.7812     0.0000     0.0000 </r>
       <r>   -40.5971     0.0000     0.0000 </r>
       <r>   -40.4131     0.0000     2.0000 </r>
       <r>   -40.2291     0.0000     2.0000 </r>
       <r>   -40.0450     0.0000     2.0000 </r>
       <r>   -39.8610     0.0000     6.0000 </r>
       <r>   -39.6769     0.0000    12.0000 </r>
       <r>   -39.4929     0.0000    16.0000 </r>
       <r>   -39.3089     0.0000    18.0000 </r>
       <r>   -39.1248     0.0000    20.0000 </r>
       <r>   -38.9408     0.0000    20.0000 </r>
       <r>   -38.7568     0.0000    20.0000 </r>
       <r>   -38.5727     0.0000    20.0000 </r>
       <r>   -38.3887     0.0000    20.0000 </r>
       <r>   -38.2047     0.0000    20.0000 </r>
       <r>   -38.0206     0.0000    20.0000 </r>
       <r>   -37.8366     0.0000    20.0000 </r>
       <r>   -37.6526     0.0000    20.0000 </r>
       <r>   -37.4685     0.0000    20.0000 </r>
       <r>   -37.2845     0.0000    20.0000 </r>
       <r>   -37.1005     0.0000    20.0000 </r>
       <r>   -36.9164     0.0000    20.0000 </r>
       <r>   -36.7324     0.0000    20.0000 </r>
       <r>   -36.5483     0.0000    20.0000 </r>
       <r>   -36.3643     0.0000    20.0000 </r>
       <r>   -36.1803     0.0000    20.0000 </r>
       <r>   -35.9962     0.0000    20.0000 </r>
       <r>   -35.8122     0.0000    20.0000 </r>
       <r>   -35.6282     0.0000    20.0000 </r>
       <r>   -35.4441     0.0000    20.0000 </r>
       <r>   -35.2601     0.0000    20.0000 </r>
       <r>   -35.0761     0.0000    20.0000 </r>
       <r>   -34.8920     0.0000    20.0000 </r>
       <r>   -34.7080     0.0000    20.0000 </r>
       <r>   -34.5240     0.0000    20.0000 </r>
       <r>   -34.3399     0.0000    20.0000 </r>
       <r>   -34.1559     0.0000    20.0000 </r>
       <r>   -33.9718     0.0000    20.0000 </r>
       <r>   -33.7878     0.0000    20.0000 </r>
       <r>   -33.6038     0.0000    20.0000 </r>
       <r>   -33.4197     0.0000    20.0000 </r>
       <r>   -33.2357     0.0000    20.0000 </r>
       <r>   -33.0517     0.0000    20.0000 </r>
       <r>   -32.8676     0.0000    20.0000 </r>
       <r>   -32.6836     0.0000    20.0000 </r>
       <r>   -32.4996     0.0000    20.0000 </r>
       <r>   -32.3155     0.0000    20.0000 </r>
       <r>   -32.1315     0.0000    20.0000 </r>
       <r>   -31.9475     0.0000    20.0000 </r>
       <r>   -31.7634     0.0000    20.0000 </r>
       <r>   -31.5794     0.0000    20.0000 </r>
       <r>   -31.3954     0.0000    20.0000 </r>
       <r>   -31.2113     0.0000    20.0000 </r>
       <r>   -31.0273     0.0000    20.0000 </r>
       <r>   -30.8432     0.0000    20.0000 </r>
       <r>   -30.6592     0.0000    20.0000 </r>
       <r>   -30.4752     0.0000    20.0000 </r>
       <r>   -30.2911     0.0000    20.0000 </r>
       <r>   -30.1071     0.0000    20.0000 </r>
       <r>   -29.9231     0.0000    20.0000 </r>
       <r>   -29.7390     0.0000    20.0000 </r>
       <r>   -29.5550     0.0000    20.0000 </r>
       <r>   -29.3710     0.0000    20.0000 </r>
       <r>   -29.1869     0.0000    20.0000 </r>
       <r>   -29.0029     0.0000    20.0000 </r>
       <r>   -28.8189     0.0000    20.0000 </r>
       <r>   -28.6348     0.0000    20.0000 </r>
       <r>   -28.4508     0.0000    20.0000 </r>
       <r>   -28.2667     0.0000    20.0000 </r>
       <r>   -28.0827     0.0000    20.0000 </r>
       <r>   -27.8987     0.0000    20.0000 </r>
       <r>   -27.7146     0.0000    20.0000 </r>
       <r>   -27.5306     0.0000    20.0000 </r>
       <r>   -27.3466     0.0000    20.0000 </r>
       <r>   -27.1625     0.0000    20.0000 </r>
       <r>   -26.9785     0.0000    20.0000 </r>
       <r>   -26.7945     0.0000    20.0000 </r>
       <r>   -26.6104     0.0000    20.0000 </r>
       <r>   -26.4264     0.0000    20.0000 </r>
       <r>   -26.2424     0.0000    20.0000 </r>
       <r>   -26.0583     0.0000    20.0000 </r>
       <r>   -25.8743     0.0000    20.0000 </r>
       <r>   -25.6902     0.0000    20.0000 </r>
       <r>   -25.5062     0.0000    20.0000 </r>
       <r>   -25.3222     0.0000    20.0000 </r>
       <r>   -25.1381     0.0000    20.0000 </r>
       <r>   -24.9541     0.0000    20.0000 </r>
       <r>   -24.7701     0.0000    20.0000 </r>
       <r>   -24.5860     0.0000    20.0000 </r>
       <r>   -24.4020     0.0000    20.0000 </r>
       <r>   -24.2180     0.0000    20.0000 </r>
       <r>   -24.0339     0.0000    20.0000 </r>
       <r>   -23.8499     0.0000    20.0000 </r>
       <r>   -23.6659     0.0000    20.0000 </r>
       <r>   -23.4818     0.0000    20.0000 </r>
       <r>   -23.2978     0.0000    20.0000 </r>
       <r>   -23.1138     0.0000    20.0000 </r>
       <r>   -22.9297     0.0000    20.0000 </r>
       <r>   -22.7457     0.0000    20.0000 </r>
       <r>   -22.5616     0.0000    20.0000 </r>
       <r>   -22.3776     0.0000    20.0000 </r>
       <r>   -22.1936     0.0000    20.0000 </r>
       <r>   -22.0095     0.0000    20.0000 </r>
       <r>   -21.8255     0.0000    20.0000 </r>
       <r>   -21.6415     0.0000    20.0000 </r>
       <r>   -21.4574     0.0000    20.0000 </r>
       <r>   -21.2734     0.0000    20.0000 </r>
       <r>   -21.0894     0.0000    20.0000 </r>
       <r>   -20.9053     0.0000    20.0000 </r>
       <r>   -20.7213     0.0000    20.0000 </r>
       <r>   -20.5373     0.0000    20.0000 </r>
       <r>   -20.3532     0.0000    20.0000 </r>
       <r>   -20.1692     0.0000    20.0000 </r>
       <r>   -19.9851     0.0000    20.0000 </r>
       <r>   -19.8011     0.0000    20.0000 </r>
       <r>   -19.6171     0.0000    20.0000 </r>
       <r>   -19.4330     0.0000    20.0000 </r>
       <r>   -19.2490     0.0000    20.0000 </r>
       <r>   -19.0650     0.0000    20.0000 </r>
       <r>   -18.8809     0.0000    30.0000 </r>
       <r>   -18.6969     0.0000    52.0000 </r>
       <r>   -18.5129     0.0000   118.0000 </r>
       <r>   -18.3288     0.0000   158.0000 </r>
       <r>   -18.1448     0.0000   176.0000 </r>
       <r>   -17.9608     0.0000   180.0000 </r>
       <r>   -17.7767     0.0000   180.0000 </r>
       <r>   -17.5927     0.0000   180.0000 </r>
       <r>   -17.4087     0.0000   180.0000 </r>
       <r>   -17.2246     0.0000   180.0000 </r>
       <r>   -17.0406     0.0000   180.0000 </r>
       <r>   -16.8565     0.0000   180.0000 </r>
       <r>   -16.6725     0.0000   180.0000 </r>
       <r>   -16.4885     0.0000   180.0000 </r>
       <r>   -16.3044     0.0000   180.0000 </r>
       <r>   -16.1204     0.0000   180.0000 </r>
       <r>   -15.9364     0.0000   180.0000 </r>
       <r>   -15.7523     0.0000   180.0000 </r>
       <r>   -15.5683     0.0000   180.0000 </r>
       <r>   -15.3843     0.0000   180.0000 </r>
       <r>   -15.2002     0.0000   180.0000 </r>
       <r>   -15.0162     0.0000   180.0000 </r>
       <r>   -14.8322     0.0000   180.0000 </r>
       <r>   -14.6481     0.0000   180.0000 </r>
       <r>   -14.4641     0.0000   180.0000 </r>
       <r>   -14.2800     0.0000   180.0000 </r>
       <r>   -14.0960     0.0000   180.0000 </r>
       <r>   -13.9120     0.0000   180.0000 </r>
       <r>   -13.7279     0.0000   180.0000 </r>
       <r>   -13.5439     0.0000   182.0000 </r>
       <r>   -13.3599     0.0000   186.0000 </r>
       <r>   -13.1758     0.0000   186.0000 </r>
       <r>   -12.9918     0.0000   186.0000 </r>
       <r>   -12.8078     0.0000   190.0000 </r>
       <r>   -12.6237     0.0000   202.0000 </r>
       <r>   -12.4397     0.0000   206.0000 </r>
       <r>   -12.2557     0.0000   206.0000 </r>
       <r>   -12.0716     0.0000   206.0000 </r>
       <r>   -11.8876     0.0000   210.0000 </r>
       <r>   -11.7036     0.0000   212.0000 </r>
       <r>   -11.5195     0.0000   212.0000 </r>
       <r>   -11.3355     0.0000   212.0000 </r>
       <r>   -11.1514     0.0000   212.0000 </r>
       <r>   -10.9674     0.0000   212.0000 </r>
       <r>   -10.7834     0.0000   212.0000 </r>
       <r>   -10.5993     0.0000   212.0000 </r>
       <r>   -10.4153     0.0000   212.0000 </r>
       <r>   -10.2313     0.0000   212.0000 </r>
       <r>   -10.0472     0.0000   212.0000 </r>
       <r>    -9.8632     0.0000   212.0000 </r>
       <r>    -9.6792     0.0000   212.0000 </r>
       <r>    -9.4951     0.0000   212.0000 </r>
       <r>    -9.3111     1.6606   212.0134 </r>
       <r>    -9.1271     7.9587   213.7117 </r>
       <r>    -8.9430     7.2498   215.8434 </r>
       <r>    -8.7590    31.0693   217.8339 </r>
       <r>    -8.5749    13.4890   220.4634 </r>
       <r>    -8.3909    21.7491   224.8057 </r>
       <r>    -8.2069    18.1543   228.1951 </r>
       <r>    -8.0228    49.0348   231.9450 </r>
       <r>    -7.8388    18.8771   236.2494 </r>
       <r>    -7.6548    13.9036   239.6346 </r>
       <r>    -7.4707    17.1246   242.9034 </r>
       <r>    -7.2867     0.0000   244.0000 </r>
       <r>    -7.1027     0.0000   244.0000 </r>
       <r>    -6.9186     0.0000   244.0000 </r>
       <r>    -6.7346     0.0000   244.0000 </r>
       <r>    -6.5506     0.0000   244.0000 </r>
       <r>    -6.3665     0.1533   244.0003 </r>
       <r>    -6.1825    20.7466   245.8436 </r>
       <r>    -5.9984    11.8540   250.0098 </r>
       <r>    -5.8144    15.9223   253.4703 </r>
       <r>    -5.6304    21.5716   257.9261 </r>
       <r>    -5.4463    19.8365   261.5653 </r>
       <r>    -5.2623    19.3293   265.3682 </r>
       <r>    -5.0783     6.0132   267.7361 </r>
       <r>    -4.8942     6.3755   268.4582 </r>
       <r>    -4.7102     8.6857   269.8840 </r>
       <r>    -4.5262     9.0593   271.6504 </r>
       <r>    -4.3421     6.4832   273.1124 </r>
       <r>    -4.1581     6.6560   274.3235 </r>
       <r>    -3.9741     4.1771   275.3603 </r>
       <r>    -3.7900     1.4463   275.8554 </r>
       <r>    -3.6060     0.1320   275.9976 </r>
       <r>    -3.4220     0.0000   276.0000 </r>
       <r>    -3.2379     0.0000   276.0000 </r>
       <r>    -3.0539     0.0000   276.0000 </r>
       <r>    -2.8698     0.0000   276.0000 </r>
       <r>    -2.6858     0.0000   276.0000 </r>
       <r>    -2.5018     0.0000   276.0000 </r>
       <r>    -2.3177     0.0000   276.0000 </r>
       <r>    -2.1337     0.0000   276.0000 </r>
       <r>    -1.9497     0.0000   276.0000 </r>
       <r>    -1.7656     0.0000   276.0000 </r>
       <r>    -1.5816     0.0000   276.0000 </r>
       <r>    -1.3976     0.6093   276.0118 </r>
       <r>    -1.2135     7.7699   276.7645 </r>
       <r>    -1.0295    11.1896   278.5668 </r>
       <r>    -0.8455    11.4621   280.7953 </r>
       <r>    -0.6614     7.2445   282.6139 </r>
       <r>    -0.4774    17.2619   284.1598 </r>
       <r>    -0.2933    21.3062   287.6552 </r>
       <r>    -0.1093    38.5922   292.7801 </r>
       <r>     0.0747    30.3536   299.8454 </r>
       <r>     0.2588    30.9244   304.9174 </r>
       <r>     0.4428    39.2218   312.1594 </r>
       <r>     0.6268    35.9725   319.3113 </r>
       <r>     0.8109    39.8011   326.3663 </r>
       <r>     0.9949    30.6197   333.5694 </r>
       <r>     1.1789    37.2675   341.3815 </r>
       <r>     1.3630    53.5447   350.5969 </r>
       <r>     1.5470    47.7665   358.6707 </r>
       <r>     1.7310    50.4444   367.2282 </r>
       <r>     1.9151    43.3646   375.4582 </r>
       <r>     2.0991    45.5890   383.7051 </r>
       <r>     2.2831    46.3538   391.7716 </r>
       <r>     2.4672    59.4105   401.0829 </r>
       <r>     2.6512    56.9111   412.4425 </r>
       <r>     2.8353    57.5048   423.3524 </r>
       <r>     3.0193    61.8713   434.8158 </r>
       <r>     3.2033    51.3414   445.1059 </r>
       <r>     3.3874    44.8282   452.5127 </r>
       <r>     3.5714    24.0423   459.7038 </r>
       <r>     3.7554    22.2322   463.2928 </r>
       <r>     3.9395    11.3306   466.1941 </r>
       <r>     4.1235     4.7524   467.6742 </r>
       <r>     4.3075     0.0000   468.0000 </r>
       <r>     4.4916     0.0000   468.0000 </r>
       <r>     4.6756     0.0000   468.0000 </r>
       <r>     4.8596     0.0000   468.0000 </r>
       <r>     5.0437     0.0000   468.0000 </r>
       <r>     5.2277     1.9405   468.1042 </r>
       <r>     5.4118     6.2474   468.8575 </r>
       <r>     5.5958     9.2753   470.3896 </r>
       <r>     5.7798    31.6974   472.7823 </r>
       <r>     5.9639    14.2191   476.2595 </r>
       <r>     6.1479    11.7919   478.6503 </r>
       <r>     6.3319    12.1945   480.8015 </r>
       <r>     6.5160    14.2619   483.2364 </r>
       <r>     6.7000    16.2512   486.0480 </r>
       <r>     6.8840    18.3430   489.2192 </r>
       <r>     7.0681    22.2625   492.8899 </r>
       <r>     7.2521    32.0023   497.8368 </r>
       <r>     7.4361    42.1810   504.3948 </r>
       <r>     7.6202    22.5333   510.1363 </r>
       <r>     7.8042    44.1592   516.1942 </r>
       <r>     7.9882    44.6554   525.4082 </r>
       <r>     8.1723    23.0212   531.0946 </r>
       <r>     8.3563    18.2161   534.8462 </r>
       <r>     8.5404    21.4864   538.4704 </r>
       <r>     8.7244    28.4136   543.1796 </r>
       <r>     8.9084    49.4579   549.8474 </r>
       <r>     9.0925    21.7768   556.5615 </r>
       <r>     9.2765     7.4224   558.8929 </r>
       <r>     9.4605     2.4613   559.7803 </r>
       <r>     9.6446     0.2045   559.9954 </r>
       <r>     9.8286     0.0000   560.0000 </r>
       <r>    10.0126     0.0000   560.0000 </r>
       <r>    10.1967     0.0000   560.0000 </r>
       <r>    10.3807     0.0000   560.0000 </r>
       <r>    10.5647     0.0000   560.0000 </r>
       <r>    10.7488     0.0000   560.0000 </r>
       <r>    10.9328     0.0000   560.0000 </r>
       <r>    11.1169     0.0000   560.0000 </r>
       <r>    11.3009     0.0000   560.0000 </r>
       <r>    11.4849     0.0000   560.0000 </r>
       <r>    11.6690     0.0000   560.0000 </r>
       <r>    11.8530     0.0000   560.0000 </r>
       <r>    12.0370     0.0000   560.0000 </r>
       <r>    12.2211     0.0000   560.0000 </r>
      </set>
     </set>
    </array>
   </total>
  </dos>
 </calculation>
 <structure name="finalpos" >
  <crystal>
   <varray name="basis" >
    <v>      11.17850000       0.00000000       0.00000000 </v>
    <v>       0.00000000       9.57460000       0.00000000 </v>
    <v>       0.00000000       0.00000000      11.18240000 </v>
   </varray>
   <i name="volume">   1196.84853820 </i>
   <varray name="rec_basis" >
    <v>       0.08945744       0.00000000       0.00000000 </v>
    <v>       0.00000000       0.10444301       0.00000000 </v>
    <v>       0.00000000       0.00000000       0.08942624 </v>
   </varray>
  </crystal>
  <varray name="positions" >
   <v>       0.37539000       0.00017000       0.43687000 </v>
   <v>       0.12461000       0.99984000       0.18687000 </v>
   <v>       0.37461000       0.00017000       0.18687000 </v>
   <v>       0.62539000       0.99984000       0.43687000 </v>
   <v>       0.62461000       0.99984000       0.18687000 </v>
   <v>       0.87461000       0.00017000       0.18687000 </v>
   <v>       0.12539000       0.99984000       0.93687000 </v>
   <v>       0.37461000       0.00017000       0.68687000 </v>
   <v>       0.62539000       0.99984000       0.93687000 </v>
   <v>       0.87539000       0.00017000       0.93687000 </v>
   <v>       0.87539000       0.00017000       0.43687000 </v>
   <v>       0.12461000       0.99984000       0.68687000 </v>
   <v>       0.62461000       0.99984000       0.68687000 </v>
   <v>       0.00013000       0.29519000       0.06281000 </v>
   <v>       0.25013000       0.70481000       0.06281000 </v>
   <v>       0.24987000       0.29519000       0.31282000 </v>
   <v>       0.49987000       0.70481000       0.31282000 </v>
   <v>       0.50013000       0.29519000       0.06281000 </v>
   <v>       0.75013000       0.70481000       0.06281000 </v>
   <v>       0.74987000       0.29519000       0.31282000 </v>
   <v>       0.99987000       0.70481000       0.31282000 </v>
   <v>       0.00013000       0.29519000       0.56281000 </v>
   <v>       0.25013000       0.70481000       0.56281000 </v>
   <v>       0.24987000       0.29519000       0.81282000 </v>
   <v>       0.49987000       0.70481000       0.81282000 </v>
   <v>       0.50013000       0.29519000       0.56281000 </v>
   <v>       0.75013000       0.70481000       0.56281000 </v>
   <v>       0.74987000       0.29519000       0.81282000 </v>
   <v>       0.99987000       0.70481000       0.81282000 </v>
   <v>       0.25005000       0.32677000       0.06286000 </v>
   <v>       0.00005000       0.67323000       0.06286000 </v>
   <v>       0.49995000       0.32677000       0.31286000 </v>
   <v>       0.24995000       0.67323000       0.31286000 </v>
   <v>       0.75005000       0.32677000       0.06286000 </v>
   <v>       0.50005000       0.67323000       0.06286000 </v>
   <v>       0.99995000       0.32677000       0.31286000 </v>
   <v>       0.74995000       0.67323000       0.31286000 </v>
   <v>       0.25005000       0.32677000       0.56286000 </v>
   <v>       0.00005000       0.67323000       0.56286000 </v>
   <v>       0.49995000       0.32677000       0.81286000 </v>
   <v>       0.24995000       0.67323000       0.81286000 </v>
   <v>       0.75005000       0.32677000       0.56286000 </v>
   <v>       0.50005000       0.67323000       0.56286000 </v>
   <v>       0.99995000       0.32677000       0.81286000 </v>
   <v>       0.74995000       0.67323000       0.81286000 </v>
   <v>       0.49987000       0.07798000       0.06246000 </v>
   <v>       0.24987000       0.92202000       0.06246000 </v>
   <v>       0.25013000       0.07798000       0.31246000 </v>
   <v>       0.00013000       0.92202000       0.31246000 </v>
   <v>       0.99987000       0.07798000       0.06246000 </v>
   <v>       0.74987000       0.92202000       0.06246000 </v>
   <v>       0.75013000       0.07798000       0.31246000 </v>
   <v>       0.50013000       0.92202000       0.31246000 </v>
   <v>       0.49987000       0.07798000       0.56246000 </v>
   <v>       0.24987000       0.92202000       0.56246000 </v>
   <v>       0.25013000       0.07798000       0.81246000 </v>
   <v>       0.00013000       0.92202000       0.81246000 </v>
   <v>       0.99987000       0.07798000       0.56246000 </v>
   <v>       0.74987000       0.92202000       0.56246000 </v>
   <v>       0.75013000       0.07798000       0.81246000 </v>
   <v>       0.50013000       0.92202000       0.81246000 </v>
  </varray>
 </structure>
</modeling>
