<?xml version="1.0" encoding="ISO-8859-1"?>
<modeling>
 <generator>
  <i name="program" type="string">vasp </i>
  <i name="version" type="string">5.4.4.18Apr17-6-g9f103f2a35  </i>
  <i name="subversion" type="string">(build Jul 31 2017 11:33:29) complex            parallel </i>
  <i name="platform" type="string">LinuxIFC </i>
  <i name="date" type="string">2021 09 29 </i>
  <i name="time" type="string">19:49:59 </i>
 </generator>
 <incar>
  <i type="string" name="SYSTEM"> La2O2S</i>
  <i type="string" name="PREC">normal</i>
  <i type="int" name="NELMIN">     4</i>
  <i type="int" name="IBRION">     2</i>
  <i type="int" name="NFREE">    10</i>
  <i name="EDIFF">      0.00000100</i>
  <i name="EDIFFG">     -0.01000000</i>
  <i type="int" name="NSW">     1</i>
  <i type="int" name="ISIF">     2</i>
  <i name="ENCUT">    600.00000000</i>
  <i name="ENAUG">    900.00000000</i>
  <i type="int" name="ISMEAR">    -5</i>
  <i type="logical" name="LWAVE"> F  </i>
  <i type="logical" name="LCHARG"> F  </i>
  <v type="int" name="KPOINT_BSE">    -1     0     0     0</v>
 </incar>
 <structure name="primitive_cell" >
  <crystal>
   <varray name="basis" >
    <v>      11.17850000       0.00000000       0.00000000 </v>
    <v>       0.00000000       9.57460000       0.00000000 </v>
    <v>       0.00000000       0.00000000      11.18240000 </v>
   </varray>
   <i name="volume">   1196.84853820 </i>
   <varray name="rec_basis" >
    <v>       0.08945744       0.00000000       0.00000000 </v>
    <v>       0.00000000       0.10444301       0.00000000 </v>
    <v>       0.00000000       0.00000000       0.08942624 </v>
   </varray>
  </crystal>
  <varray name="positions" >
   <v>       0.12461000      -0.00016000       0.18687000 </v>
   <v>      -0.00013000       0.07798000       0.06246000 </v>
   <v>       0.24987000      -0.07798000       0.06246000 </v>
   <v>       0.00013000      -0.07798000       0.31246000 </v>
   <v>       0.25013000       0.07798000       0.31246000 </v>
   <v>       0.37461000       0.00017000       0.18687000 </v>
   <v>       0.12539000      -0.00016000      -0.06313000 </v>
   <v>       0.00013000       0.29519000       0.06281000 </v>
   <v>       0.25013000      -0.29519000       0.06281000 </v>
   <v>      -0.00013000      -0.29519000       0.31282000 </v>
   <v>       0.24987000       0.29519000       0.31282000 </v>
   <v>       0.00005000      -0.32677000       0.06286000 </v>
   <v>       0.25005000       0.32677000       0.06286000 </v>
   <v>      -0.00005000       0.32677000       0.31286000 </v>
   <v>       0.24995000      -0.32677000       0.31286000 </v>
   <v>      -0.12461000       0.00017000      -0.06313000 </v>
   <v>      -0.12461000       0.00017000       0.43687000 </v>
   <v>       0.37539000       0.00017000      -0.06313000 </v>
   <v>       0.37539000       0.00017000       0.43687000 </v>
   <v>       0.00013000      -0.07798000      -0.18754000 </v>
   <v>      -0.25013000      -0.07798000       0.06246000 </v>
   <v>      -0.24987000       0.07798000       0.31246000 </v>
   <v>       0.25013000       0.07798000      -0.18754000 </v>
   <v>       0.49987000       0.07798000       0.06246000 </v>
   <v>      -0.00013000       0.07798000      -0.43754000 </v>
   <v>      -0.49987000      -0.07798000       0.31246000 </v>
   <v>       0.24987000      -0.07798000      -0.43754000 </v>
   <v>      -0.00013000      -0.29519000      -0.18718000 </v>
   <v>      -0.24987000      -0.29519000       0.06281000 </v>
   <v>       0.24987000       0.29519000      -0.18718000 </v>
   <v>      -0.25013000       0.29519000       0.31282000 </v>
   <v>      -0.49987000       0.29519000       0.06281000 </v>
   <v>       0.49987000      -0.29519000       0.31282000 </v>
   <v>       0.00013000       0.29519000      -0.43719000 </v>
   <v>       0.25013000      -0.29519000      -0.43719000 </v>
   <v>      -0.00005000       0.32677000      -0.18714000 </v>
   <v>       0.24995000      -0.32677000      -0.18714000 </v>
   <v>      -0.24995000       0.32677000       0.06286000 </v>
   <v>      -0.25005000      -0.32677000       0.31286000 </v>
   <v>      -0.49995000      -0.32677000       0.06286000 </v>
   <v>       0.49995000       0.32677000       0.31286000 </v>
   <v>       0.00005000      -0.32677000      -0.43714000 </v>
   <v>       0.25005000       0.32677000      -0.43714000 </v>
   <v>      -0.37539000      -0.00016000       0.18687000 </v>
   <v>       0.12461000      -0.00016000      -0.31313000 </v>
   <v>      -0.24987000       0.07798000      -0.18754000 </v>
   <v>      -0.49987000      -0.07798000      -0.18754000 </v>
   <v>      -0.25013000      -0.07798000      -0.43754000 </v>
   <v>       0.49987000       0.07798000      -0.43754000 </v>
   <v>      -0.37461000      -0.00016000      -0.06313000 </v>
   <v>      -0.12539000       0.00017000      -0.31313000 </v>
   <v>      -0.25013000       0.29519000      -0.18718000 </v>
   <v>       0.49987000      -0.29519000      -0.18718000 </v>
   <v>      -0.24987000      -0.29519000      -0.43719000 </v>
   <v>      -0.49987000       0.29519000      -0.43719000 </v>
   <v>      -0.25005000      -0.32677000      -0.18714000 </v>
   <v>       0.49995000       0.32677000      -0.18714000 </v>
   <v>      -0.24995000       0.32677000      -0.43714000 </v>
   <v>      -0.49995000      -0.32677000      -0.43714000 </v>
   <v>      -0.37539000      -0.00016000      -0.31313000 </v>
  </varray>
 </structure>
 <varray name="primitive_index" >
  <v type="int" >        1 </v>
  <v type="int" >       49 </v>
  <v type="int" >       46 </v>
  <v type="int" >       48 </v>
  <v type="int" >       47 </v>
  <v type="int" >        2 </v>
  <v type="int" >        3 </v>
  <v type="int" >       13 </v>
  <v type="int" >       14 </v>
  <v type="int" >       20 </v>
  <v type="int" >       15 </v>
  <v type="int" >       30 </v>
  <v type="int" >       29 </v>
  <v type="int" >       35 </v>
  <v type="int" >       32 </v>
  <v type="int" >        6 </v>
  <v type="int" >       10 </v>
  <v type="int" >        4 </v>
  <v type="int" >        9 </v>
  <v type="int" >       56 </v>
  <v type="int" >       50 </v>
  <v type="int" >       51 </v>
  <v type="int" >       55 </v>
  <v type="int" >       45 </v>
  <v type="int" >       57 </v>
  <v type="int" >       52 </v>
  <v type="int" >       54 </v>
  <v type="int" >       28 </v>
  <v type="int" >       18 </v>
  <v type="int" >       23 </v>
  <v type="int" >       19 </v>
  <v type="int" >       17 </v>
  <v type="int" >       16 </v>
  <v type="int" >       21 </v>
  <v type="int" >       22 </v>
  <v type="int" >       43 </v>
  <v type="int" >       40 </v>
  <v type="int" >       33 </v>
  <v type="int" >       36 </v>
  <v type="int" >       34 </v>
  <v type="int" >       31 </v>
  <v type="int" >       38 </v>
  <v type="int" >       37 </v>
  <v type="int" >       11 </v>
  <v type="int" >       12 </v>
  <v type="int" >       59 </v>
  <v type="int" >       60 </v>
  <v type="int" >       58 </v>
  <v type="int" >       53 </v>
  <v type="int" >        5 </v>
  <v type="int" >        8 </v>
  <v type="int" >       27 </v>
  <v type="int" >       24 </v>
  <v type="int" >       26 </v>
  <v type="int" >       25 </v>
  <v type="int" >       44 </v>
  <v type="int" >       39 </v>
  <v type="int" >       41 </v>
  <v type="int" >       42 </v>
  <v type="int" >        7 </v>
 </varray>
 <kpoints>
  <generation param="Gamma">
   <v type="int" name="divisions">       2        2        2 </v>
   <v name="usershift">      0.00000000       0.00000000       0.00000000 </v>
   <v name="genvec1">      0.50000000       0.00000000       0.00000000 </v>
   <v name="genvec2">      0.00000000       0.50000000       0.00000000 </v>
   <v name="genvec3">      0.00000000       0.00000000       0.50000000 </v>
   <v name="shift">      0.00000000       0.00000000       0.00000000 </v>
  </generation>
  <varray name="kpointlist" >
   <v>       0.00000000       0.00000000       0.00000000 </v>
   <v>       0.50000000       0.00000000       0.00000000 </v>
   <v>       0.00000000       0.50000000       0.00000000 </v>
   <v>       0.50000000       0.50000000       0.00000000 </v>
   <v>       0.00000000       0.00000000       0.50000000 </v>
   <v>       0.50000000       0.00000000       0.50000000 </v>
   <v>       0.00000000       0.50000000       0.50000000 </v>
   <v>       0.50000000       0.50000000       0.50000000 </v>
  </varray>
  <varray name="weights" >
   <v>       0.12500000 </v>
   <v>       0.12500000 </v>
   <v>       0.12500000 </v>
   <v>       0.12500000 </v>
   <v>       0.12500000 </v>
   <v>       0.12500000 </v>
   <v>       0.12500000 </v>
   <v>       0.12500000 </v>
  </varray>
  <varray name="tetrahedronlist"  type="int" >
   <v type="int" >        2        1        2        4        5 </v>
   <v type="int" >        2        1        3        4        5 </v>
   <v type="int" >        2        3        4        5        7 </v>
   <v type="int" >        2        2        4        5        6 </v>
   <v type="int" >        2        4        5        6        8 </v>
   <v type="int" >        2        4        5        7        8 </v>
   <v type="int" >        2        1        2        3        6 </v>
   <v type="int" >        2        2        3        4        6 </v>
   <v type="int" >        2        3        4        6        8 </v>
   <v type="int" >        2        1        3        5        6 </v>
   <v type="int" >        2        3        5        6        7 </v>
   <v type="int" >        2        3        6        7        8 </v>
   <v type="int" >        2        2        3        4        7 </v>
   <v type="int" >        2        1        2        3        7 </v>
   <v type="int" >        2        1        2        5        7 </v>
   <v type="int" >        2        2        4        7        8 </v>
   <v type="int" >        2        2        6        7        8 </v>
   <v type="int" >        2        2        5        6        7 </v>
   <v type="int" >        2        1        3        4        8 </v>
   <v type="int" >        2        1        2        4        8 </v>
   <v type="int" >        2        1        2        6        8 </v>
   <v type="int" >        2        1        3        7        8 </v>
   <v type="int" >        2        1        5        7        8 </v>
   <v type="int" >        2        1        5        6        8 </v>
  </varray>
  <i name="volumeweight">      0.02083333 </i>
 </kpoints>
 <parameters>
  <separator name="general" >
   <i type="string" name="SYSTEM">La2O2S</i>
   <i type="logical" name="LCOMPAT"> F  </i>
  </separator>
  <separator name="electronic" >
   <i type="string" name="PREC">normal</i>
   <i name="ENMAX">    600.00000000</i>
   <i name="ENAUG">    900.00000000</i>
   <i name="EDIFF">      0.00000100</i>
   <i type="int" name="IALGO">    38</i>
   <i type="int" name="IWAVPR">    11</i>
   <i type="int" name="NBANDS">   280</i>
   <i name="NELECT">    464.00000000</i>
   <i type="int" name="TURBO">     0</i>
   <i type="int" name="IRESTART">     0</i>
   <i type="int" name="NREBOOT">     0</i>
   <i type="int" name="NMIN">     0</i>
   <i name="EREF">      0.00000000</i>
   <separator name="electronic smearing" >
    <i type="int" name="ISMEAR">    -5</i>
    <i name="SIGMA">      0.20000000</i>
    <i name="KSPACING">      0.50000000</i>
    <i type="logical" name="KGAMMA"> T  </i>
   </separator>
   <separator name="electronic projectors" >
    <i type="logical" name="LREAL"> F  </i>
    <v name="ROPT">      0.00000000      0.00000000      0.00000000      0.00000000      0.00000000</v>
    <i type="int" name="LMAXPAW">  -100</i>
    <i type="int" name="LMAXMIX">     2</i>
    <i type="logical" name="NLSPLINE"> F  </i>
   </separator>
   <separator name="electronic startup" >
    <i type="int" name="ISTART">     0</i>
    <i type="int" name="ICHARG">     2</i>
    <i type="int" name="INIWAV">     1</i>
   </separator>
   <separator name="electronic spin" >
    <i type="int" name="ISPIN">     1</i>
    <i type="logical" name="LNONCOLLINEAR"> F  </i>
    <v name="MAGMOM">      1.00000000      1.00000000      1.00000000      1.00000000      1.00000000      1.00000000      1.00000000      1.00000000      1.00000000      1.00000000      1.00000000      1.00000000      1.00000000      1.00000000      1.00000000      1.00000000      1.00000000      1.00000000      1.00000000      1.00000000
      1.00000000      1.00000000      1.00000000      1.00000000      1.00000000      1.00000000      1.00000000      1.00000000      1.00000000      1.00000000      1.00000000      1.00000000      1.00000000      1.00000000      1.00000000      1.00000000      1.00000000      1.00000000      1.00000000      1.00000000
      1.00000000      1.00000000      1.00000000      1.00000000      1.00000000      1.00000000      1.00000000      1.00000000      1.00000000      1.00000000      1.00000000      1.00000000      1.00000000      1.00000000      1.00000000      1.00000000      1.00000000      1.00000000      1.00000000      1.00000000
</v>
    <i name="NUPDOWN">     -1.00000000</i>
    <i type="logical" name="LSORBIT"> F  </i>
    <v name="SAXIS">      0.00000000      0.00000000      1.00000000</v>
    <i type="logical" name="LSPIRAL"> F  </i>
    <v name="QSPIRAL">      0.00000000      0.00000000      0.00000000</v>
    <i type="logical" name="LZEROZ"> F  </i>
   </separator>
   <separator name="electronic exchange-correlation" >
    <i type="logical" name="LASPH"> F  </i>
    <i type="logical" name="LMETAGGA"> F  </i>
   </separator>
   <separator name="electronic convergence" >
    <i type="int" name="NELM">    60</i>
    <i type="int" name="NELMDL">    -5</i>
    <i type="int" name="NELMIN">     4</i>
    <i name="ENINI">    600.00000000</i>
    <separator name="electronic convergence detail" >
     <i type="logical" name="LDIAG"> T  </i>
     <i type="logical" name="LSUBROT"> F  </i>
     <i name="WEIMIN">      0.00100000</i>
     <i name="EBREAK">      0.00000000</i>
     <i name="DEPER">      0.30000000</i>
     <i type="int" name="NRMM">     4</i>
     <i name="TIME">      0.40000000</i>
    </separator>
   </separator>
   <separator name="electronic mixer" >
    <i name="AMIX">      0.40000000</i>
    <i name="BMIX">      1.00000000</i>
    <i name="AMIN">      0.10000000</i>
    <i name="AMIX_MAG">      1.60000000</i>
    <i name="BMIX_MAG">      1.00000000</i>
    <separator name="electronic mixer details" >
     <i type="int" name="IMIX">     4</i>
     <i type="logical" name="MIXFIRST"> F  </i>
     <i type="int" name="MAXMIX">   -45</i>
     <i name="WC">    100.00000000</i>
     <i type="int" name="INIMIX">     1</i>
     <i type="int" name="MIXPRE">     1</i>
     <i type="int" name="MREMOVE">     5</i>
    </separator>
   </separator>
   <separator name="electronic dipolcorrection" >
    <i type="logical" name="LDIPOL"> F  </i>
    <i type="logical" name="LMONO"> F  </i>
    <i type="int" name="IDIPOL">     0</i>
    <i name="EPSILON">      1.00000000</i>
    <v name="DIPOL">   -100.00000000   -100.00000000   -100.00000000</v>
    <i name="EFIELD">      0.00000000</i>
   </separator>
  </separator>
  <separator name="grids" >
   <i type="int" name="NGX">    70</i>
   <i type="int" name="NGY">    60</i>
   <i type="int" name="NGZ">    70</i>
   <i type="int" name="NGXF">   140</i>
   <i type="int" name="NGYF">   120</i>
   <i type="int" name="NGZF">   140</i>
   <i type="logical" name="ADDGRID"> F  </i>
  </separator>
  <separator name="ionic" >
   <i type="int" name="NSW">     1</i>
   <i type="int" name="IBRION">     2</i>
   <i type="int" name="MDALGO">     0</i>
   <i type="int" name="ISIF">     2</i>
   <i name="PSTRESS">      0.00000000</i>
   <i name="EDIFFG">     -0.01000000</i>
   <i type="int" name="NFREE">    10</i>
   <i name="POTIM">      0.50000000</i>
   <i name="SMASS">     -3.00000000</i>
   <i name="SCALEE">      1.00000000</i>
  </separator>
  <separator name="ionic md" >
   <i name="TEBEG">      0.00010000</i>
   <i name="TEEND">      0.00010000</i>
   <i type="int" name="NBLOCK">     1</i>
   <i type="int" name="KBLOCK">     1</i>
   <i type="int" name="NPACO">   256</i>
   <i name="APACO">     16.00000000</i>
  </separator>
  <separator name="symmetry" >
   <i type="int" name="ISYM">     2</i>
   <i name="SYMPREC">      0.00001000</i>
  </separator>
  <separator name="dos" >
   <i type="int" name="LORBIT">     0</i>
   <v name="RWIGS">     -1.00000000     -1.00000000     -1.00000000     -1.00000000     -1.00000000</v>
   <i type="int" name="NEDOS">   301</i>
   <i name="EMIN">     10.00000000</i>
   <i name="EMAX">    -10.00000000</i>
   <i name="EFERMI">      0.00000000</i>
  </separator>
  <separator name="writing" >
   <i type="int" name="NWRITE">     2</i>
   <i type="logical" name="LWAVE"> F  </i>
   <i type="logical" name="LDOWNSAMPLE"> F  </i>
   <i type="logical" name="LCHARG"> F  </i>
   <i type="logical" name="LPARD"> F  </i>
   <i type="logical" name="LVTOT"> F  </i>
   <i type="logical" name="LVHAR"> F  </i>
   <i type="logical" name="LELF"> F  </i>
   <i type="logical" name="LOPTICS"> F  </i>
   <v name="STM">      0.00000000      0.00000000      0.00000000      0.00000000      0.00000000      0.00000000      0.00000000</v>
  </separator>
  <separator name="performance" >
   <i type="int" name="NPAR">    28</i>
   <i type="int" name="NSIM">     4</i>
   <i type="int" name="NBLK">    -1</i>
   <i type="logical" name="LPLANE"> T  </i>
   <i type="logical" name="LSCALAPACK"> T  </i>
   <i type="logical" name="LSCAAWARE"> F  </i>
   <i type="logical" name="LSCALU"> F  </i>
   <i type="logical" name="LASYNC"> F  </i>
   <i type="logical" name="LORBITALREAL"> F  </i>
  </separator>
  <separator name="miscellaneous" >
   <i type="int" name="IDIOT">     3</i>
   <i type="int" name="ISPECIAL">     0</i>
   <i type="logical" name="LMUSIC"> F  </i>
   <v name="POMASS">      7.01000000     24.30500000    208.98000000     32.06600000     16.00000000</v>
   <v name="DARWINR">      0.00000000      0.00000000      0.00000000      0.00000000      0.00000000</v>
   <v name="DARWINV">      1.00000000      1.00000000      1.00000000      1.00000000      1.00000000</v>
   <i type="logical" name="LCORR"> T  </i>
  </separator>
  <i type="logical" name="GGA_COMPAT"> T  </i>
  <i type="logical" name="LBERRY"> F  </i>
  <i type="int" name="ICORELEVEL">     0</i>
  <i type="logical" name="LDAU"> F  </i>
  <i type="int" name="I_CONSTRAINED_M">     0</i>
  <separator name="electronic exchange-correlation" >
   <i type="string" name="GGA">--</i>
   <i type="int" name="VOSKOWN">     0</i>
   <i type="logical" name="LHFCALC"> F  </i>
   <i type="string" name="PRECFOCK"></i>
   <i type="logical" name="LSYMGRAD"> F  </i>
   <i type="logical" name="LHFONE"> F  </i>
   <i type="logical" name="LRHFCALC"> F  </i>
   <i type="logical" name="LTHOMAS"> F  </i>
   <i type="logical" name="LMODELHF"> F  </i>
   <i name="ENCUT4O">     -1.00000000</i>
   <i type="int" name="EXXOEP">     0</i>
   <i type="int" name="FOURORBIT">     0</i>
   <i name="AEXX">      0.00000000</i>
   <i name="HFALPHA">      0.00000000</i>
   <i name="MCALPHA">      0.00000000</i>
   <i name="ALDAX">      1.00000000</i>
   <i name="AGGAX">      1.00000000</i>
   <i name="ALDAC">      1.00000000</i>
   <i name="AGGAC">      1.00000000</i>
   <i type="int" name="NKREDX">     1</i>
   <i type="int" name="NKREDY">     1</i>
   <i type="int" name="NKREDZ">     1</i>
   <i type="logical" name="SHIFTRED"> F  </i>
   <i type="logical" name="ODDONLY"> F  </i>
   <i type="logical" name="EVENONLY"> F  </i>
   <i type="int" name="LMAXFOCK">     0</i>
   <i type="int" name="NMAXFOCKAE">     0</i>
   <i type="logical" name="LFOCKAEDFT"> F  </i>
   <i name="HFSCREEN">      0.00000000</i>
   <i name="HFSCREENC">      0.00000000</i>
   <i type="int" name="NBANDSGWLOW">     0</i>
  </separator>
  <separator name="vdW DFT" >
   <i type="logical" name="LUSE_VDW"> F  </i>
   <i name="Zab_VDW">     -0.84910000</i>
   <i name="PARAM1">      0.12340000</i>
   <i name="PARAM2">      1.00000000</i>
   <i name="PARAM3">      0.00000000</i>
  </separator>
  <separator name="model GW" >
   <i type="int" name="MODEL_GW">     0</i>
   <i name="MODEL_EPS0">     11.96848538</i>
   <i name="MODEL_ALPHA">      1.00000000</i>
  </separator>
  <separator name="linear response parameters" >
   <i type="logical" name="LEPSILON"> F  </i>
   <i type="logical" name="LRPA"> F  </i>
   <i type="logical" name="LNABLA"> F  </i>
   <i type="logical" name="LVEL"> F  </i>
   <i type="int" name="KINTER">     0</i>
   <i name="CSHIFT">      0.10000000</i>
   <i name="OMEGAMAX">     -1.00000000</i>
   <i name="DEG_THRESHOLD">      0.00200000</i>
   <i name="RTIME">     -0.10000000</i>
   <i name="WPLASMAI">      0.00000000</i>
   <v name="DFIELD">      0.00000000      0.00000000      0.00000000</v>
   <v name="WPLASMA">      0.00000000      0.00000000      0.00000000      0.00000000      0.00000000      0.00000000      0.00000000      0.00000000      0.00000000</v>
  </separator>
  <separator name="orbital magnetization" >
   <i type="logical" name="NUCIND"> F  </i>
   <v name="MAGPOS">      0.00000000      0.00000000      0.00000000</v>
   <i type="logical" name="LNICSALL"> T  </i>
   <i type="logical" name="ORBITALMAG"> F  </i>
   <i type="logical" name="LMAGBLOCH"> F  </i>
   <i type="logical" name="LCHIMAG"> F  </i>
   <i type="logical" name="LGAUGE"> T  </i>
   <i type="int" name="MAGATOM">     0</i>
   <v name="MAGDIPOL">      0.00000000      0.00000000      0.00000000</v>
   <v name="AVECCONST">      0.00000000      0.00000000      0.00000000</v>
  </separator>
  <separator name="response functions" >
   <i type="logical" name="LADDER"> F  </i>
   <i type="logical" name="LRPAFORCE"> F  </i>
   <i type="logical" name="LFXC"> F  </i>
   <i type="logical" name="LHARTREE"> T  </i>
   <i type="int" name="IBSE">     0</i>
   <v type="int" name="KPOINT">    -1     0     0     0</v>
   <i type="logical" name="LTCTE"> F  </i>
   <i type="logical" name="LTETE"> F  </i>
   <i type="logical" name="LTRIPLET"> F  </i>
   <i type="logical" name="LFXCEPS"> F  </i>
   <i type="logical" name="LFXHEG"> F  </i>
   <i type="int" name="NATURALO">     2</i>
   <i type="logical" name="L2ORDER"> F  </i>
   <i type="logical" name="LMP2LT"> F  </i>
   <i type="logical" name="LUSEW"> F  </i>
   <i name="ENCUTGW">     -2.00000000</i>
   <i name="ENCUTGWSOFT">     -2.00000000</i>
   <i name="ENCUTLF">     -1.00000000</i>
   <i type="int" name="LMAXMP2">    -1</i>
   <i name="SCISSOR">      0.00000000</i>
   <i type="int" name="NOMEGA">     0</i>
   <i type="int" name="NOMEGAR">     0</i>
   <i type="int" name="NBANDSGW">    -1</i>
   <i type="int" name="NBANDSO">    -1</i>
   <i type="int" name="NBANDSV">    -1</i>
   <i type="int" name="NELM">     1</i>
   <i type="int" name="NELMHF">     1</i>
   <i type="int" name="DIM">     3</i>
   <i type="int" name="ANTIRES">     0</i>
   <i name="OMEGAMAX">    -30.00000000</i>
   <i name="OMEGAMIN">    -30.00000000</i>
   <i name="OMEGATL">   -200.00000000</i>
   <i type="int" name="OMEGAGRID">   140</i>
   <i name="CSHIFT">     -0.10000000</i>
   <i type="logical" name="SELFENERGY"> F  </i>
   <i type="logical" name="LSPECTRAL"> F  </i>
   <i type="logical" name="LSPECTRALGW"> F  </i>
   <i type="logical" name="LSINGLES"> F  </i>
   <i type="logical" name="LFERMIGW"> F  </i>
   <i type="logical" name="ODDONLYGW"> F  </i>
   <i type="logical" name="EVENONLYGW"> F  </i>
   <i type="int" name="NKREDLFX">     1</i>
   <i type="int" name="NKREDLFY">     1</i>
   <i type="int" name="NKREDLFZ">     1</i>
   <i type="int" name="MAXMEM">  2800</i>
   <i type="int" name="TELESCOPE">     0</i>
   <i type="int" name="TAUPAR">     1</i>
   <i type="int" name="OMEGAPAR">    -1</i>
   <i name="LAMBDA">      1.00000000</i>
  </separator>
  <separator name="External order field" >
   <i name="OFIELD_KAPPA">      0.00000000</i>
   <v name="OFIELD_K">      0.00000000      0.00000000      0.00000000</v>
   <i name="OFIELD_Q6_NEAR">      0.00000000</i>
   <i name="OFIELD_Q6_FAR">      0.00000000</i>
   <i name="OFIELD_A">      0.00000000</i>
  </separator>
 </parameters>
 <atominfo>
  <atoms>      60 </atoms>
  <types>       5 </types>
  <array name="atoms" >
   <dimension dim="1">ion</dimension>
   <field type="string">element</field>
   <field type="int">atomtype</field>
   <set>
    <rc><c>Li</c><c>   1</c></rc>
    <rc><c>Li</c><c>   1</c></rc>
    <rc><c>Li</c><c>   1</c></rc>
    <rc><c>Li</c><c>   1</c></rc>
    <rc><c>Li</c><c>   1</c></rc>
    <rc><c>Li</c><c>   1</c></rc>
    <rc><c>Li</c><c>   1</c></rc>
    <rc><c>Li</c><c>   1</c></rc>
    <rc><c>Mg</c><c>   2</c></rc>
    <rc><c>Mg</c><c>   2</c></rc>
    <rc><c>Mg</c><c>   2</c></rc>
    <rc><c>Mg</c><c>   2</c></rc>
    <rc><c>Bi</c><c>   3</c></rc>
    <rc><c>Bi</c><c>   3</c></rc>
    <rc><c>Bi</c><c>   3</c></rc>
    <rc><c>Bi</c><c>   3</c></rc>
    <rc><c>Bi</c><c>   3</c></rc>
    <rc><c>Bi</c><c>   3</c></rc>
    <rc><c>Bi</c><c>   3</c></rc>
    <rc><c>Bi</c><c>   3</c></rc>
    <rc><c>Bi</c><c>   3</c></rc>
    <rc><c>Bi</c><c>   3</c></rc>
    <rc><c>Bi</c><c>   3</c></rc>
    <rc><c>Bi</c><c>   3</c></rc>
    <rc><c>Bi</c><c>   3</c></rc>
    <rc><c>Bi</c><c>   3</c></rc>
    <rc><c>Bi</c><c>   3</c></rc>
    <rc><c>Bi</c><c>   3</c></rc>
    <rc><c>S </c><c>   4</c></rc>
    <rc><c>S </c><c>   4</c></rc>
    <rc><c>S </c><c>   4</c></rc>
    <rc><c>S </c><c>   4</c></rc>
    <rc><c>S </c><c>   4</c></rc>
    <rc><c>S </c><c>   4</c></rc>
    <rc><c>S </c><c>   4</c></rc>
    <rc><c>S </c><c>   4</c></rc>
    <rc><c>S </c><c>   4</c></rc>
    <rc><c>S </c><c>   4</c></rc>
    <rc><c>S </c><c>   4</c></rc>
    <rc><c>S </c><c>   4</c></rc>
    <rc><c>S </c><c>   4</c></rc>
    <rc><c>S </c><c>   4</c></rc>
    <rc><c>S </c><c>   4</c></rc>
    <rc><c>S </c><c>   4</c></rc>
    <rc><c>O </c><c>   5</c></rc>
    <rc><c>O </c><c>   5</c></rc>
    <rc><c>O </c><c>   5</c></rc>
    <rc><c>O </c><c>   5</c></rc>
    <rc><c>O </c><c>   5</c></rc>
    <rc><c>O </c><c>   5</c></rc>
    <rc><c>O </c><c>   5</c></rc>
    <rc><c>O </c><c>   5</c></rc>
    <rc><c>O </c><c>   5</c></rc>
    <rc><c>O </c><c>   5</c></rc>
    <rc><c>O </c><c>   5</c></rc>
    <rc><c>O </c><c>   5</c></rc>
    <rc><c>O </c><c>   5</c></rc>
    <rc><c>O </c><c>   5</c></rc>
    <rc><c>O </c><c>   5</c></rc>
    <rc><c>O </c><c>   5</c></rc>
   </set>
  </array>
  <array name="atomtypes" >
   <dimension dim="1">type</dimension>
   <field type="int">atomspertype</field>
   <field type="string">element</field>
   <field>mass</field>
   <field>valence</field>
   <field type="string">pseudopotential</field>
   <set>
    <rc><c>   8</c><c>Li</c><c>      7.01000000</c><c>      3.00000000</c><c>  PAW_PBE Li_sv 10Sep2004               </c></rc>
    <rc><c>   4</c><c>Mg</c><c>     24.30500000</c><c>      2.00000000</c><c>  PAW_PBE Mg 13Apr2007                  </c></rc>
    <rc><c>  16</c><c>Bi</c><c>    208.98000000</c><c>     15.00000000</c><c>  PAW_PBE Bi_d 06Sep2000                </c></rc>
    <rc><c>  16</c><c>S </c><c>     32.06600000</c><c>      6.00000000</c><c>  PAW_PBE S 06Sep2000                   </c></rc>
    <rc><c>  16</c><c>O </c><c>     16.00000000</c><c>      6.00000000</c><c>  PAW_PBE O 08Apr2002                   </c></rc>
   </set>
  </array>
 </atominfo>
 <structure name="initialpos" >
  <crystal>
   <varray name="basis" >
    <v>      11.17850000       0.00000000       0.00000000 </v>
    <v>       0.00000000       9.57460000       0.00000000 </v>
    <v>       0.00000000       0.00000000      11.18240000 </v>
   </varray>
   <i name="volume">   1196.84853820 </i>
   <varray name="rec_basis" >
    <v>       0.08945744       0.00000000       0.00000000 </v>
    <v>       0.00000000       0.10444301       0.00000000 </v>
    <v>       0.00000000       0.00000000       0.08942624 </v>
   </varray>
  </crystal>
  <varray name="positions" >
   <v>       0.12461000       0.99984000       0.18687000 </v>
   <v>       0.37461000       0.00017000       0.18687000 </v>
   <v>       0.12539000       0.99984000       0.93687000 </v>
   <v>       0.37539000       0.00017000       0.93687000 </v>
   <v>       0.62539000       0.99984000       0.93687000 </v>
   <v>       0.87539000       0.00017000       0.93687000 </v>
   <v>       0.62461000       0.99984000       0.68687000 </v>
   <v>       0.87461000       0.00017000       0.68687000 </v>
   <v>       0.37539000       0.00017000       0.43687000 </v>
   <v>       0.87539000       0.00017000       0.43687000 </v>
   <v>       0.62461000       0.99984000       0.18687000 </v>
   <v>       0.12461000       0.99984000       0.68687000 </v>
   <v>       0.00013000       0.29519000       0.06281000 </v>
   <v>       0.25013000       0.70481000       0.06281000 </v>
   <v>       0.24987000       0.29519000       0.31282000 </v>
   <v>       0.49987000       0.70481000       0.31282000 </v>
   <v>       0.50013000       0.29519000       0.06281000 </v>
   <v>       0.75013000       0.70481000       0.06281000 </v>
   <v>       0.74987000       0.29519000       0.31282000 </v>
   <v>       0.99987000       0.70481000       0.31282000 </v>
   <v>       0.00013000       0.29519000       0.56281000 </v>
   <v>       0.25013000       0.70481000       0.56281000 </v>
   <v>       0.24987000       0.29519000       0.81282000 </v>
   <v>       0.49987000       0.70481000       0.81282000 </v>
   <v>       0.50013000       0.29519000       0.56281000 </v>
   <v>       0.75013000       0.70481000       0.56281000 </v>
   <v>       0.74987000       0.29519000       0.81282000 </v>
   <v>       0.99987000       0.70481000       0.81282000 </v>
   <v>       0.25005000       0.32677000       0.06286000 </v>
   <v>       0.00005000       0.67323000       0.06286000 </v>
   <v>       0.49995000       0.32677000       0.31286000 </v>
   <v>       0.24995000       0.67323000       0.31286000 </v>
   <v>       0.75005000       0.32677000       0.06286000 </v>
   <v>       0.50005000       0.67323000       0.06286000 </v>
   <v>       0.99995000       0.32677000       0.31286000 </v>
   <v>       0.74995000       0.67323000       0.31286000 </v>
   <v>       0.25005000       0.32677000       0.56286000 </v>
   <v>       0.00005000       0.67323000       0.56286000 </v>
   <v>       0.49995000       0.32677000       0.81286000 </v>
   <v>       0.24995000       0.67323000       0.81286000 </v>
   <v>       0.75005000       0.32677000       0.56286000 </v>
   <v>       0.50005000       0.67323000       0.56286000 </v>
   <v>       0.99995000       0.32677000       0.81286000 </v>
   <v>       0.74995000       0.67323000       0.81286000 </v>
   <v>       0.49987000       0.07798000       0.06246000 </v>
   <v>       0.24987000       0.92202000       0.06246000 </v>
   <v>       0.25013000       0.07798000       0.31246000 </v>
   <v>       0.00013000       0.92202000       0.31246000 </v>
   <v>       0.99987000       0.07798000       0.06246000 </v>
   <v>       0.74987000       0.92202000       0.06246000 </v>
   <v>       0.75013000       0.07798000       0.31246000 </v>
   <v>       0.50013000       0.92202000       0.31246000 </v>
   <v>       0.49987000       0.07798000       0.56246000 </v>
   <v>       0.24987000       0.92202000       0.56246000 </v>
   <v>       0.25013000       0.07798000       0.81246000 </v>
   <v>       0.00013000       0.92202000       0.81246000 </v>
   <v>       0.99987000       0.07798000       0.56246000 </v>
   <v>       0.74987000       0.92202000       0.56246000 </v>
   <v>       0.75013000       0.07798000       0.81246000 </v>
   <v>       0.50013000       0.92202000       0.81246000 </v>
  </varray>
 </structure>
 <calculation>
  <scstep>
   <time name="dav">   60.18   60.16</time>
   <time name="total">   60.26   60.25</time>
   <energy>
    <i name="alphaZ">   1067.11773629 </i>
    <i name="ewald"> -30632.17007276 </i>
    <i name="hartreedc"> -12721.31356303 </i>
    <i name="XCdc">   1321.06162449 </i>
    <i name="pawpsdc">  36729.48549953 </i>
    <i name="pawaedc"> -36149.63912807 </i>
    <i name="eentropy">      0.00000000 </i>
    <i name="bandstr">   1837.97574515 </i>
    <i name="atom">  44408.54722957 </i>
    <i name="e_fr_energy">   5861.06507116 </i>
    <i name="e_wo_entrp">   5861.06507116 </i>
    <i name="e_0_energy">   5861.06507116 </i>
   </energy>
  </scstep>
  <scstep>
   <time name="dav">   60.32   60.31</time>
   <time name="total">   60.33   60.32</time>
   <energy>
    <i name="e_fr_energy">    787.73831066 </i>
    <i name="e_wo_entrp">    787.73831066 </i>
    <i name="e_0_energy">    787.73831066 </i>
   </energy>
  </scstep>
  <scstep>
   <time name="dav">   69.48   69.48</time>
   <time name="total">   69.48   69.48</time>
   <energy>
    <i name="e_fr_energy">   -242.57649663 </i>
    <i name="e_wo_entrp">   -242.57649663 </i>
    <i name="e_0_energy">   -242.57649663 </i>
   </energy>
  </scstep>
  <scstep>
   <time name="dav">   71.92   71.91</time>
   <time name="total">   71.92   71.91</time>
   <energy>
    <i name="e_fr_energy">   -340.91808743 </i>
    <i name="e_wo_entrp">   -340.91808743 </i>
    <i name="e_0_energy">   -340.91808743 </i>
   </energy>
  </scstep>
  <scstep>
   <time name="dav">   95.73   95.72</time>
   <time name="total">   96.46   96.46</time>
   <energy>
    <i name="e_fr_energy">   -349.65307429 </i>
    <i name="e_wo_entrp">   -349.65307429 </i>
    <i name="e_0_energy">   -349.65307429 </i>
   </energy>
  </scstep>
  <scstep>
   <time name="dav">   85.55   85.53</time>
   <time name="total">   86.35   86.34</time>
   <energy>
    <i name="e_fr_energy">   -292.52640024 </i>
    <i name="e_wo_entrp">   -292.52640024 </i>
    <i name="e_0_energy">   -292.52640024 </i>
   </energy>
  </scstep>
  <scstep>
   <time name="dav">   65.24   65.23</time>
   <time name="total">   66.04   66.03</time>
   <energy>
    <i name="e_fr_energy">   -295.12420161 </i>
    <i name="e_wo_entrp">   -295.12420161 </i>
    <i name="e_0_energy">   -295.12420161 </i>
   </energy>
  </scstep>
  <scstep>
   <time name="dav">   75.94   75.95</time>
   <time name="total">   76.74   76.75</time>
   <energy>
    <i name="e_fr_energy">   -293.99147674 </i>
    <i name="e_wo_entrp">   -293.99147674 </i>
    <i name="e_0_energy">   -293.99147674 </i>
   </energy>
  </scstep>
  <scstep>
   <time name="dav">   75.68   75.68</time>
   <time name="total">   76.48   76.48</time>
   <energy>
    <i name="e_fr_energy">   -293.41051464 </i>
    <i name="e_wo_entrp">   -293.41051464 </i>
    <i name="e_0_energy">   -293.41051464 </i>
   </energy>
  </scstep>
  <scstep>
   <time name="dav">   74.80   74.78</time>
   <time name="total">   75.61   75.58</time>
   <energy>
    <i name="e_fr_energy">   -293.43472574 </i>
    <i name="e_wo_entrp">   -293.43472574 </i>
    <i name="e_0_energy">   -293.43472574 </i>
   </energy>
  </scstep>
  <scstep>
   <time name="dav">   76.97   76.95</time>
   <time name="total">   77.77   77.75</time>
   <energy>
    <i name="e_fr_energy">   -293.44030677 </i>
    <i name="e_wo_entrp">   -293.44030677 </i>
    <i name="e_0_energy">   -293.44030677 </i>
   </energy>
  </scstep>
  <scstep>
   <time name="dav">   78.64   78.70</time>
   <time name="total">   79.44   79.51</time>
   <energy>
    <i name="e_fr_energy">   -293.44335190 </i>
    <i name="e_wo_entrp">   -293.44335190 </i>
    <i name="e_0_energy">   -293.44335190 </i>
   </energy>
  </scstep>
  <scstep>
   <time name="dav">   75.69   75.77</time>
   <time name="total">   76.48   76.57</time>
   <energy>
    <i name="e_fr_energy">   -293.44470280 </i>
    <i name="e_wo_entrp">   -293.44470280 </i>
    <i name="e_0_energy">   -293.44470280 </i>
   </energy>
  </scstep>
  <scstep>
   <time name="dav">   77.65   77.80</time>
   <time name="total">   78.45   78.61</time>
   <energy>
    <i name="e_fr_energy">   -293.44492706 </i>
    <i name="e_wo_entrp">   -293.44492706 </i>
    <i name="e_0_energy">   -293.44492706 </i>
   </energy>
  </scstep>
  <scstep>
   <time name="dav">   78.99   79.20</time>
   <time name="total">   79.79   80.01</time>
   <energy>
    <i name="e_fr_energy">   -293.44496777 </i>
    <i name="e_wo_entrp">   -293.44496777 </i>
    <i name="e_0_energy">   -293.44496777 </i>
   </energy>
  </scstep>
  <scstep>
   <time name="dav">   65.54   65.68</time>
   <time name="total">   66.33   66.50</time>
   <energy>
    <i name="e_fr_energy">   -293.44498979 </i>
    <i name="e_wo_entrp">   -293.44498979 </i>
    <i name="e_0_energy">   -293.44498979 </i>
   </energy>
  </scstep>
  <scstep>
   <time name="dav">   67.69   67.81</time>
   <time name="total">   68.49   68.62</time>
   <energy>
    <i name="e_fr_energy">   -293.44499372 </i>
    <i name="e_wo_entrp">   -293.44499372 </i>
    <i name="e_0_energy">   -293.44499372 </i>
   </energy>
  </scstep>
  <scstep>
   <time name="dav">   63.05   63.15</time>
   <time name="total">   63.85   63.96</time>
   <energy>
    <i name="e_fr_energy">   -293.44499493 </i>
    <i name="e_wo_entrp">   -293.44499493 </i>
    <i name="e_0_energy">   -293.44499493 </i>
   </energy>
  </scstep>
  <scstep>
   <time name="dav">   46.16   46.23</time>
   <time name="total">   46.23   46.30</time>
   <energy>
    <i name="alphaZ">   1067.11773629 </i>
    <i name="ewald"> -30632.17007276 </i>
    <i name="hartreedc"> -12961.50351644 </i>
    <i name="XCdc">   1345.28893850 </i>
    <i name="pawpsdc">  43763.04612305 </i>
    <i name="pawaedc"> -43157.29170887 </i>
    <i name="eentropy">      0.00000000 </i>
    <i name="bandstr">  -4126.47972426 </i>
    <i name="atom">  44408.54722957 </i>
    <i name="e_fr_energy">   -293.44499492 </i>
    <i name="e_wo_entrp">   -293.44499492 </i>
    <i name="e_0_energy">   -293.44499492 </i>
   </energy>
  </scstep>
  <structure>
   <crystal>
    <varray name="basis" >
     <v>      11.17850000       0.00000000       0.00000000 </v>
     <v>       0.00000000       9.57460000       0.00000000 </v>
     <v>       0.00000000       0.00000000      11.18240000 </v>
    </varray>
    <i name="volume">   1196.84853820 </i>
    <varray name="rec_basis" >
     <v>       0.08945744       0.00000000       0.00000000 </v>
     <v>       0.00000000       0.10444301       0.00000000 </v>
     <v>       0.00000000       0.00000000       0.08942624 </v>
    </varray>
   </crystal>
   <varray name="positions" >
    <v>       0.12461000       0.99984000       0.18687000 </v>
    <v>       0.37461000       0.00017000       0.18687000 </v>
    <v>       0.12539000       0.99984000       0.93687000 </v>
    <v>       0.37539000       0.00017000       0.93687000 </v>
    <v>       0.62539000       0.99984000       0.93687000 </v>
    <v>       0.87539000       0.00017000       0.93687000 </v>
    <v>       0.62461000       0.99984000       0.68687000 </v>
    <v>       0.87461000       0.00017000       0.68687000 </v>
    <v>       0.37539000       0.00017000       0.43687000 </v>
    <v>       0.87539000       0.00017000       0.43687000 </v>
    <v>       0.62461000       0.99984000       0.18687000 </v>
    <v>       0.12461000       0.99984000       0.68687000 </v>
    <v>       0.00013000       0.29519000       0.06281000 </v>
    <v>       0.25013000       0.70481000       0.06281000 </v>
    <v>       0.24987000       0.29519000       0.31282000 </v>
    <v>       0.49987000       0.70481000       0.31282000 </v>
    <v>       0.50013000       0.29519000       0.06281000 </v>
    <v>       0.75013000       0.70481000       0.06281000 </v>
    <v>       0.74987000       0.29519000       0.31282000 </v>
    <v>       0.99987000       0.70481000       0.31282000 </v>
    <v>       0.00013000       0.29519000       0.56281000 </v>
    <v>       0.25013000       0.70481000       0.56281000 </v>
    <v>       0.24987000       0.29519000       0.81282000 </v>
    <v>       0.49987000       0.70481000       0.81282000 </v>
    <v>       0.50013000       0.29519000       0.56281000 </v>
    <v>       0.75013000       0.70481000       0.56281000 </v>
    <v>       0.74987000       0.29519000       0.81282000 </v>
    <v>       0.99987000       0.70481000       0.81282000 </v>
    <v>       0.25005000       0.32677000       0.06286000 </v>
    <v>       0.00005000       0.67323000       0.06286000 </v>
    <v>       0.49995000       0.32677000       0.31286000 </v>
    <v>       0.24995000       0.67323000       0.31286000 </v>
    <v>       0.75005000       0.32677000       0.06286000 </v>
    <v>       0.50005000       0.67323000       0.06286000 </v>
    <v>       0.99995000       0.32677000       0.31286000 </v>
    <v>       0.74995000       0.67323000       0.31286000 </v>
    <v>       0.25005000       0.32677000       0.56286000 </v>
    <v>       0.00005000       0.67323000       0.56286000 </v>
    <v>       0.49995000       0.32677000       0.81286000 </v>
    <v>       0.24995000       0.67323000       0.81286000 </v>
    <v>       0.75005000       0.32677000       0.56286000 </v>
    <v>       0.50005000       0.67323000       0.56286000 </v>
    <v>       0.99995000       0.32677000       0.81286000 </v>
    <v>       0.74995000       0.67323000       0.81286000 </v>
    <v>       0.49987000       0.07798000       0.06246000 </v>
    <v>       0.24987000       0.92202000       0.06246000 </v>
    <v>       0.25013000       0.07798000       0.31246000 </v>
    <v>       0.00013000       0.92202000       0.31246000 </v>
    <v>       0.99987000       0.07798000       0.06246000 </v>
    <v>       0.74987000       0.92202000       0.06246000 </v>
    <v>       0.75013000       0.07798000       0.31246000 </v>
    <v>       0.50013000       0.92202000       0.31246000 </v>
    <v>       0.49987000       0.07798000       0.56246000 </v>
    <v>       0.24987000       0.92202000       0.56246000 </v>
    <v>       0.25013000       0.07798000       0.81246000 </v>
    <v>       0.00013000       0.92202000       0.81246000 </v>
    <v>       0.99987000       0.07798000       0.56246000 </v>
    <v>       0.74987000       0.92202000       0.56246000 </v>
    <v>       0.75013000       0.07798000       0.81246000 </v>
    <v>       0.50013000       0.92202000       0.81246000 </v>
   </varray>
  </structure>
  <varray name="forces" >
   <v>      -0.49331469       0.00220125       0.33412857 </v>
   <v>      -0.47838810      -0.00317148      -0.14466588 </v>
   <v>       0.00347737       0.12725903       0.47701689 </v>
   <v>      -0.01452127      -0.13476369      -0.50422732 </v>
   <v>       0.00372464      -0.12576462      -0.46430779 </v>
   <v>      -0.01395050       0.13444614       0.51383214 </v>
   <v>      -0.49314115      -0.00005676      -0.32481664 </v>
   <v>      -0.47890582       0.00112327       0.15857244 </v>
   <v>      -0.03770442       0.22809550       1.02424856 </v>
   <v>      -0.04001153      -0.24037379      -0.96606234 </v>
   <v>       1.03738046       0.00298267       0.66584680 </v>
   <v>       1.03895135       0.00364993      -0.60537865 </v>
   <v>      -0.10317200      -0.98725703       0.17836184 </v>
   <v>      -0.10975666      -0.04321037      -0.01323170 </v>
   <v>      -0.28744678       0.02159284       0.00230154 </v>
   <v>       0.12261099      -1.00011475       0.20611302 </v>
   <v>      -0.10346358       1.07057439      -0.21505982 </v>
   <v>       0.29131703       0.00117234       0.00700176 </v>
   <v>       0.10304372      -0.10112373      -0.01536204 </v>
   <v>       0.08621939       1.01112856      -0.19136140 </v>
   <v>       0.10571320       1.01292745      -0.21125794 </v>
   <v>       0.10213326       0.10158796       0.00637466 </v>
   <v>       0.29600390      -0.00528640      -0.01506797 </v>
   <v>      -0.08748564       0.97573128      -0.19150535 </v>
   <v>       0.06567724      -1.01977961       0.17942951 </v>
   <v>      -0.29764725      -0.01747257      -0.01249211 </v>
   <v>      -0.09479763       0.04359654       0.00451046 </v>
   <v>      -0.09094676      -1.06107461       0.20882337 </v>
   <v>       0.18597039       0.19737936      -0.00060289 </v>
   <v>       0.02134657      -0.16393767      -0.21182994 </v>
   <v>      -0.02378165       0.09803739      -0.20975011 </v>
   <v>       0.24385263      -0.12894766       0.00535082 </v>
   <v>      -0.24523479       0.11966385       0.01083738 </v>
   <v>       0.03672590      -0.14553091       0.21743347 </v>
   <v>      -0.03764279       0.11320085       0.21775038 </v>
   <v>      -0.18154095      -0.08991405      -0.01066931 </v>
   <v>      -0.18673920       0.08895404       0.00827176 </v>
   <v>      -0.02242870      -0.09648598       0.20903635 </v>
   <v>       0.02263619       0.16269856       0.21218742 </v>
   <v>      -0.24073269      -0.12031181      -0.01172964 </v>
   <v>       0.24348663       0.12903102      -0.00633764 </v>
   <v>      -0.03747073      -0.11566759      -0.21548040 </v>
   <v>       0.03630905       0.14810720      -0.22014695 </v>
   <v>       0.18537355      -0.19694964       0.00121872 </v>
   <v>       0.47541143      -0.80787018       0.62420282 </v>
   <v>       0.15854111       0.03023916      -0.00273858 </v>
   <v>       1.23818482       0.00431990      -0.15092838 </v>
   <v>      -0.50031400      -0.92233248       0.60406220 </v>
   <v>       0.60659929       0.77381559      -0.74541581 </v>
   <v>      -1.23484338      -0.00416274      -0.11644752 </v>
   <v>      -0.15689528       0.28076484      -0.04257847 </v>
   <v>      -0.60750634       0.66066812      -0.79622320 </v>
   <v>      -0.49185323       0.92294395      -0.60501226 </v>
   <v>      -0.12980187      -0.27976276       0.02003027 </v>
   <v>      -1.25382787      -0.00151226       0.10182278 </v>
   <v>       0.47096548       0.80748326      -0.63971742 </v>
   <v>      -0.60646397      -0.66541923       0.77699795 </v>
   <v>       1.26068438       0.00270848       0.13586648 </v>
   <v>       0.14499935      -0.03084657      -0.00015943 </v>
   <v>       0.59439187      -0.76898376       0.74893456 </v>
  </varray>
  <varray name="stress" >
   <v>     -10.26389728      -0.23827187       0.00062914 </v>
   <v>      -0.23827216     -13.70063835      -0.39850628 </v>
   <v>       0.00062908      -0.39850632      -7.52363838 </v>
  </varray>
  <energy>
   <i name="e_fr_energy">   -307.05153541 </i>
   <i name="e_wo_entrp">   -307.05153541 </i>
   <i name="e_0_energy">      0.00000000 </i>
  </energy>
  <time name="totalsc"> 1485.07 1486.16</time>
  <eigenvalues>
   <array>
    <dimension dim="1">band</dimension>
    <dimension dim="2">kpoint</dimension>
    <dimension dim="3">spin</dimension>
    <field>eigene</field>
    <field>occ</field>
    <set>
     <set comment="spin 1">
      <set comment="kpoint 1">
       <r>  -40.2383    1.0000 </r>
       <r>  -40.2382    1.0000 </r>
       <r>  -39.8748    1.0000 </r>
       <r>  -39.8738    1.0000 </r>
       <r>  -39.7935    1.0000 </r>
       <r>  -39.7924    1.0000 </r>
       <r>  -39.4329    1.0000 </r>
       <r>  -39.4318    1.0000 </r>
       <r>  -18.8681    1.0000 </r>
       <r>  -18.8668    1.0000 </r>
       <r>  -18.8632    1.0000 </r>
       <r>  -18.8603    1.0000 </r>
       <r>  -18.8023    1.0000 </r>
       <r>  -18.8016    1.0000 </r>
       <r>  -18.7970    1.0000 </r>
       <r>  -18.7958    1.0000 </r>
       <r>  -18.7953    1.0000 </r>
       <r>  -18.7950    1.0000 </r>
       <r>  -18.7892    1.0000 </r>
       <r>  -18.7875    1.0000 </r>
       <r>  -18.6936    1.0000 </r>
       <r>  -18.6925    1.0000 </r>
       <r>  -18.6913    1.0000 </r>
       <r>  -18.6910    1.0000 </r>
       <r>  -18.6853    1.0000 </r>
       <r>  -18.6844    1.0000 </r>
       <r>  -18.6742    1.0000 </r>
       <r>  -18.6717    1.0000 </r>
       <r>  -18.6605    1.0000 </r>
       <r>  -18.6601    1.0000 </r>
       <r>  -18.6569    1.0000 </r>
       <r>  -18.6566    1.0000 </r>
       <r>  -18.6539    1.0000 </r>
       <r>  -18.6535    1.0000 </r>
       <r>  -18.6507    1.0000 </r>
       <r>  -18.6500    1.0000 </r>
       <r>  -18.6498    1.0000 </r>
       <r>  -18.6489    1.0000 </r>
       <r>  -18.6449    1.0000 </r>
       <r>  -18.6448    1.0000 </r>
       <r>  -18.6445    1.0000 </r>
       <r>  -18.6434    1.0000 </r>
       <r>  -18.6421    1.0000 </r>
       <r>  -18.6414    1.0000 </r>
       <r>  -18.6397    1.0000 </r>
       <r>  -18.6391    1.0000 </r>
       <r>  -18.6353    1.0000 </r>
       <r>  -18.6351    1.0000 </r>
       <r>  -18.6318    1.0000 </r>
       <r>  -18.6317    1.0000 </r>
       <r>  -18.6198    1.0000 </r>
       <r>  -18.6197    1.0000 </r>
       <r>  -18.5048    1.0000 </r>
       <r>  -18.5035    1.0000 </r>
       <r>  -18.5030    1.0000 </r>
       <r>  -18.5019    1.0000 </r>
       <r>  -18.4902    1.0000 </r>
       <r>  -18.4901    1.0000 </r>
       <r>  -18.4900    1.0000 </r>
       <r>  -18.4899    1.0000 </r>
       <r>  -18.4897    1.0000 </r>
       <r>  -18.4895    1.0000 </r>
       <r>  -18.4889    1.0000 </r>
       <r>  -18.4887    1.0000 </r>
       <r>  -18.4878    1.0000 </r>
       <r>  -18.4877    1.0000 </r>
       <r>  -18.4816    1.0000 </r>
       <r>  -18.4790    1.0000 </r>
       <r>  -18.4760    1.0000 </r>
       <r>  -18.4747    1.0000 </r>
       <r>  -18.4692    1.0000 </r>
       <r>  -18.4668    1.0000 </r>
       <r>  -18.4630    1.0000 </r>
       <r>  -18.4616    1.0000 </r>
       <r>  -18.4606    1.0000 </r>
       <r>  -18.4605    1.0000 </r>
       <r>  -18.3958    1.0000 </r>
       <r>  -18.3925    1.0000 </r>
       <r>  -18.3924    1.0000 </r>
       <r>  -18.3906    1.0000 </r>
       <r>  -18.2808    1.0000 </r>
       <r>  -18.2794    1.0000 </r>
       <r>  -18.2771    1.0000 </r>
       <r>  -18.2739    1.0000 </r>
       <r>  -18.2671    1.0000 </r>
       <r>  -18.2638    1.0000 </r>
       <r>  -18.2555    1.0000 </r>
       <r>  -18.2540    1.0000 </r>
       <r>  -13.5008    1.0000 </r>
       <r>  -13.4877    1.0000 </r>
       <r>  -13.3887    1.0000 </r>
       <r>  -13.3845    1.0000 </r>
       <r>  -12.7973    1.0000 </r>
       <r>  -12.7958    1.0000 </r>
       <r>  -12.7312    1.0000 </r>
       <r>  -12.7292    1.0000 </r>
       <r>  -12.6797    1.0000 </r>
       <r>  -12.6791    1.0000 </r>
       <r>  -12.6439    1.0000 </r>
       <r>  -12.6295    1.0000 </r>
       <r>  -12.0931    1.0000 </r>
       <r>  -12.0807    1.0000 </r>
       <r>  -12.0339    1.0000 </r>
       <r>  -12.0257    1.0000 </r>
       <r>   -9.3256    1.0000 </r>
       <r>   -9.0296    1.0000 </r>
       <r>   -8.5833    1.0000 </r>
       <r>   -8.4953    1.0000 </r>
       <r>   -8.4928    1.0000 </r>
       <r>   -8.4048    1.0000 </r>
       <r>   -8.3578    1.0000 </r>
       <r>   -8.2685    1.0000 </r>
       <r>   -8.2663    1.0000 </r>
       <r>   -8.1780    1.0000 </r>
       <r>   -8.0417    1.0000 </r>
       <r>   -8.0413    1.0000 </r>
       <r>   -8.0316    1.0000 </r>
       <r>   -8.0313    1.0000 </r>
       <r>   -7.3668    1.0000 </r>
       <r>   -7.3662    1.0000 </r>
       <r>   -6.3857    1.0000 </r>
       <r>   -6.3839    1.0000 </r>
       <r>   -6.3463    1.0000 </r>
       <r>   -6.3462    1.0000 </r>
       <r>   -5.5069    1.0000 </r>
       <r>   -5.4295    1.0000 </r>
       <r>   -5.4270    1.0000 </r>
       <r>   -5.4262    1.0000 </r>
       <r>   -5.3475    1.0000 </r>
       <r>   -5.2641    1.0000 </r>
       <r>   -5.2602    1.0000 </r>
       <r>   -5.1785    1.0000 </r>
       <r>   -5.0907    1.0000 </r>
       <r>   -5.0059    1.0000 </r>
       <r>   -3.8223    1.0000 </r>
       <r>   -3.6727    1.0000 </r>
       <r>   -1.4811    1.0000 </r>
       <r>   -1.3018    1.0000 </r>
       <r>   -1.1216    1.0000 </r>
       <r>   -0.9914    1.0000 </r>
       <r>   -0.6385    1.0000 </r>
       <r>   -0.5239    1.0000 </r>
       <r>   -0.5231    1.0000 </r>
       <r>   -0.4502    1.0000 </r>
       <r>   -0.2240    1.0000 </r>
       <r>   -0.1897    1.0000 </r>
       <r>   -0.1750    1.0000 </r>
       <r>   -0.1302    1.0000 </r>
       <r>    0.0197    1.0000 </r>
       <r>    0.1648    1.0000 </r>
       <r>    0.2125    1.0000 </r>
       <r>    0.2592    1.0000 </r>
       <r>    0.3562    1.0000 </r>
       <r>    0.4563    1.0000 </r>
       <r>    0.5706    1.0000 </r>
       <r>    0.5847    1.0000 </r>
       <r>    0.6453    1.0000 </r>
       <r>    0.6859    1.0000 </r>
       <r>    0.6954    1.0000 </r>
       <r>    0.7198    1.0000 </r>
       <r>    0.7647    1.0000 </r>
       <r>    0.7687    1.0000 </r>
       <r>    0.8779    1.0000 </r>
       <r>    0.8960    1.0000 </r>
       <r>    0.9614    1.0000 </r>
       <r>    0.9962    1.0000 </r>
       <r>    1.0490    1.0000 </r>
       <r>    1.0522    1.0000 </r>
       <r>    1.1279    1.0000 </r>
       <r>    1.1751    1.0000 </r>
       <r>    1.2183    1.0000 </r>
       <r>    1.2549    1.0000 </r>
       <r>    1.2577    1.0000 </r>
       <r>    1.3640    1.0000 </r>
       <r>    1.3711    1.0000 </r>
       <r>    1.4275    1.0000 </r>
       <r>    1.4852    1.0000 </r>
       <r>    1.4910    1.0000 </r>
       <r>    1.5481    1.0000 </r>
       <r>    1.5876    1.0000 </r>
       <r>    1.6185    1.0000 </r>
       <r>    1.6288    1.0000 </r>
       <r>    1.6970    1.0000 </r>
       <r>    1.8042    1.0000 </r>
       <r>    1.8929    1.0000 </r>
       <r>    1.9068    1.0000 </r>
       <r>    1.9653    1.0000 </r>
       <r>    2.0267    1.0000 </r>
       <r>    2.0894    1.0000 </r>
       <r>    2.0915    1.0000 </r>
       <r>    2.2590    1.0000 </r>
       <r>    2.2620    1.0000 </r>
       <r>    2.3857    1.0000 </r>
       <r>    2.4279    1.0000 </r>
       <r>    2.4689    1.0000 </r>
       <r>    2.4723    1.0000 </r>
       <r>    2.5609    1.0000 </r>
       <r>    2.5649    1.0000 </r>
       <r>    2.5933    1.0000 </r>
       <r>    2.5965    1.0000 </r>
       <r>    2.6359    1.0000 </r>
       <r>    2.6679    1.0000 </r>
       <r>    2.6992    1.0000 </r>
       <r>    2.7054    1.0000 </r>
       <r>    2.7953    1.0000 </r>
       <r>    2.8177    1.0000 </r>
       <r>    2.8237    1.0000 </r>
       <r>    2.8400    1.0000 </r>
       <r>    2.8931    1.0000 </r>
       <r>    2.9435    1.0000 </r>
       <r>    2.9727    1.0000 </r>
       <r>    2.9868    1.0000 </r>
       <r>    3.0294    1.0000 </r>
       <r>    3.0384    1.0000 </r>
       <r>    3.0848    1.0000 </r>
       <r>    3.0980    1.0000 </r>
       <r>    3.1105    1.0000 </r>
       <r>    3.1427    1.0000 </r>
       <r>    3.1503    1.0000 </r>
       <r>    3.1851    1.0000 </r>
       <r>    3.2236    1.0000 </r>
       <r>    3.2914    1.0000 </r>
       <r>    3.2929    1.0000 </r>
       <r>    3.3716    1.0000 </r>
       <r>    3.4040    1.0000 </r>
       <r>    3.4860    1.0000 </r>
       <r>    3.5534    1.0000 </r>
       <r>    3.6868    1.0000 </r>
       <r>    4.1714    1.0000 </r>
       <r>    4.1716    1.0000 </r>
       <r>    4.2169    1.0000 </r>
       <r>    4.2173    1.0000 </r>
       <r>    5.0263    0.0000 </r>
       <r>    5.0318    0.0000 </r>
       <r>    5.1825    0.0000 </r>
       <r>    5.1843    0.0000 </r>
       <r>    5.7448    0.0000 </r>
       <r>    5.7451    0.0000 </r>
       <r>    5.8406    0.0000 </r>
       <r>    5.8426    0.0000 </r>
       <r>    6.0655    0.0000 </r>
       <r>    6.1062    0.0000 </r>
       <r>    6.1125    0.0000 </r>
       <r>    6.1445    0.0000 </r>
       <r>    6.2051    0.0000 </r>
       <r>    6.2324    0.0000 </r>
       <r>    6.2340    0.0000 </r>
       <r>    6.2574    0.0000 </r>
       <r>    7.0693    0.0000 </r>
       <r>    7.1089    0.0000 </r>
       <r>    7.3316    0.0000 </r>
       <r>    7.3338    0.0000 </r>
       <r>    7.6530    0.0000 </r>
       <r>    7.6924    0.0000 </r>
       <r>    7.9150    0.0000 </r>
       <r>    7.9399    0.0000 </r>
       <r>    7.9561    0.0000 </r>
       <r>    8.0440    0.0000 </r>
       <r>    8.1713    0.0000 </r>
       <r>    8.3186    0.0000 </r>
       <r>    8.3256    0.0000 </r>
       <r>    8.6354    0.0000 </r>
       <r>    8.6470    0.0000 </r>
       <r>    8.7560    0.0000 </r>
       <r>    8.7592    0.0000 </r>
       <r>    8.8566    0.0000 </r>
       <r>    8.9410    0.0000 </r>
       <r>    9.0091    0.0000 </r>
       <r>    9.0174    0.0000 </r>
       <r>    9.0370    0.0000 </r>
       <r>    9.0447    0.0000 </r>
       <r>    9.1236    0.0000 </r>
       <r>    9.1359    0.0000 </r>
       <r>    9.1410    0.0000 </r>
       <r>    9.2154    0.0000 </r>
       <r>    9.2369    0.0000 </r>
       <r>    9.4302    0.0000 </r>
       <r>    9.4414    0.0000 </r>
       <r>    9.5155    0.0000 </r>
       <r>    9.6523    0.0000 </r>
      </set>
      <set comment="kpoint 2">
       <r>  -40.2383    1.0000 </r>
       <r>  -40.2382    1.0000 </r>
       <r>  -39.8744    1.0000 </r>
       <r>  -39.8741    1.0000 </r>
       <r>  -39.7931    1.0000 </r>
       <r>  -39.7928    1.0000 </r>
       <r>  -39.4329    1.0000 </r>
       <r>  -39.4318    1.0000 </r>
       <r>  -18.8680    1.0000 </r>
       <r>  -18.8667    1.0000 </r>
       <r>  -18.8633    1.0000 </r>
       <r>  -18.8604    1.0000 </r>
       <r>  -18.8018    1.0000 </r>
       <r>  -18.8013    1.0000 </r>
       <r>  -18.7973    1.0000 </r>
       <r>  -18.7956    1.0000 </r>
       <r>  -18.7949    1.0000 </r>
       <r>  -18.7943    1.0000 </r>
       <r>  -18.7902    1.0000 </r>
       <r>  -18.7884    1.0000 </r>
       <r>  -18.6936    1.0000 </r>
       <r>  -18.6925    1.0000 </r>
       <r>  -18.6913    1.0000 </r>
       <r>  -18.6910    1.0000 </r>
       <r>  -18.6853    1.0000 </r>
       <r>  -18.6844    1.0000 </r>
       <r>  -18.6742    1.0000 </r>
       <r>  -18.6717    1.0000 </r>
       <r>  -18.6601    1.0000 </r>
       <r>  -18.6598    1.0000 </r>
       <r>  -18.6559    1.0000 </r>
       <r>  -18.6558    1.0000 </r>
       <r>  -18.6545    1.0000 </r>
       <r>  -18.6544    1.0000 </r>
       <r>  -18.6505    1.0000 </r>
       <r>  -18.6499    1.0000 </r>
       <r>  -18.6496    1.0000 </r>
       <r>  -18.6488    1.0000 </r>
       <r>  -18.6447    1.0000 </r>
       <r>  -18.6446    1.0000 </r>
       <r>  -18.6446    1.0000 </r>
       <r>  -18.6434    1.0000 </r>
       <r>  -18.6414    1.0000 </r>
       <r>  -18.6407    1.0000 </r>
       <r>  -18.6405    1.0000 </r>
       <r>  -18.6402    1.0000 </r>
       <r>  -18.6353    1.0000 </r>
       <r>  -18.6353    1.0000 </r>
       <r>  -18.6321    1.0000 </r>
       <r>  -18.6321    1.0000 </r>
       <r>  -18.6199    1.0000 </r>
       <r>  -18.6198    1.0000 </r>
       <r>  -18.5048    1.0000 </r>
       <r>  -18.5035    1.0000 </r>
       <r>  -18.5030    1.0000 </r>
       <r>  -18.5019    1.0000 </r>
       <r>  -18.4901    1.0000 </r>
       <r>  -18.4901    1.0000 </r>
       <r>  -18.4900    1.0000 </r>
       <r>  -18.4899    1.0000 </r>
       <r>  -18.4896    1.0000 </r>
       <r>  -18.4896    1.0000 </r>
       <r>  -18.4889    1.0000 </r>
       <r>  -18.4888    1.0000 </r>
       <r>  -18.4878    1.0000 </r>
       <r>  -18.4877    1.0000 </r>
       <r>  -18.4813    1.0000 </r>
       <r>  -18.4787    1.0000 </r>
       <r>  -18.4762    1.0000 </r>
       <r>  -18.4750    1.0000 </r>
       <r>  -18.4685    1.0000 </r>
       <r>  -18.4658    1.0000 </r>
       <r>  -18.4637    1.0000 </r>
       <r>  -18.4626    1.0000 </r>
       <r>  -18.4605    1.0000 </r>
       <r>  -18.4605    1.0000 </r>
       <r>  -18.3957    1.0000 </r>
       <r>  -18.3925    1.0000 </r>
       <r>  -18.3922    1.0000 </r>
       <r>  -18.3908    1.0000 </r>
       <r>  -18.2808    1.0000 </r>
       <r>  -18.2794    1.0000 </r>
       <r>  -18.2771    1.0000 </r>
       <r>  -18.2739    1.0000 </r>
       <r>  -18.2671    1.0000 </r>
       <r>  -18.2638    1.0000 </r>
       <r>  -18.2555    1.0000 </r>
       <r>  -18.2540    1.0000 </r>
       <r>  -13.4953    1.0000 </r>
       <r>  -13.4930    1.0000 </r>
       <r>  -13.3872    1.0000 </r>
       <r>  -13.3859    1.0000 </r>
       <r>  -12.7978    1.0000 </r>
       <r>  -12.7970    1.0000 </r>
       <r>  -12.7296    1.0000 </r>
       <r>  -12.7289    1.0000 </r>
       <r>  -12.6798    1.0000 </r>
       <r>  -12.6796    1.0000 </r>
       <r>  -12.6367    1.0000 </r>
       <r>  -12.6366    1.0000 </r>
       <r>  -12.0874    1.0000 </r>
       <r>  -12.0862    1.0000 </r>
       <r>  -12.0319    1.0000 </r>
       <r>  -12.0276    1.0000 </r>
       <r>   -9.1146    1.0000 </r>
       <r>   -9.1146    1.0000 </r>
       <r>   -8.8384    1.0000 </r>
       <r>   -8.8384    1.0000 </r>
       <r>   -8.3313    1.0000 </r>
       <r>   -8.3312    1.0000 </r>
       <r>   -8.3266    1.0000 </r>
       <r>   -8.3266    1.0000 </r>
       <r>   -8.1439    1.0000 </r>
       <r>   -8.1438    1.0000 </r>
       <r>   -8.1391    1.0000 </r>
       <r>   -8.1390    1.0000 </r>
       <r>   -7.7015    1.0000 </r>
       <r>   -7.7014    1.0000 </r>
       <r>   -7.5888    1.0000 </r>
       <r>   -7.5887    1.0000 </r>
       <r>   -5.9555    1.0000 </r>
       <r>   -5.9550    1.0000 </r>
       <r>   -5.9336    1.0000 </r>
       <r>   -5.9333    1.0000 </r>
       <r>   -5.7958    1.0000 </r>
       <r>   -5.7951    1.0000 </r>
       <r>   -5.7841    1.0000 </r>
       <r>   -5.7837    1.0000 </r>
       <r>   -5.5811    1.0000 </r>
       <r>   -5.5807    1.0000 </r>
       <r>   -5.5059    1.0000 </r>
       <r>   -5.5055    1.0000 </r>
       <r>   -4.4333    1.0000 </r>
       <r>   -4.4332    1.0000 </r>
       <r>   -4.2681    1.0000 </r>
       <r>   -4.2680    1.0000 </r>
       <r>   -1.1700    1.0000 </r>
       <r>   -1.1696    1.0000 </r>
       <r>   -0.8216    1.0000 </r>
       <r>   -0.8214    1.0000 </r>
       <r>   -0.4056    1.0000 </r>
       <r>   -0.4049    1.0000 </r>
       <r>   -0.0369    1.0000 </r>
       <r>   -0.0360    1.0000 </r>
       <r>    0.0531    1.0000 </r>
       <r>    0.0538    1.0000 </r>
       <r>    0.1164    1.0000 </r>
       <r>    0.1174    1.0000 </r>
       <r>    0.2030    1.0000 </r>
       <r>    0.2034    1.0000 </r>
       <r>    0.2984    1.0000 </r>
       <r>    0.2992    1.0000 </r>
       <r>    0.3709    1.0000 </r>
       <r>    0.3719    1.0000 </r>
       <r>    0.5456    1.0000 </r>
       <r>    0.5462    1.0000 </r>
       <r>    0.5629    1.0000 </r>
       <r>    0.5631    1.0000 </r>
       <r>    0.6385    1.0000 </r>
       <r>    0.6396    1.0000 </r>
       <r>    0.7144    1.0000 </r>
       <r>    0.7150    1.0000 </r>
       <r>    0.9199    1.0000 </r>
       <r>    0.9214    1.0000 </r>
       <r>    1.0279    1.0000 </r>
       <r>    1.0292    1.0000 </r>
       <r>    1.0907    1.0000 </r>
       <r>    1.0923    1.0000 </r>
       <r>    1.1161    1.0000 </r>
       <r>    1.1171    1.0000 </r>
       <r>    1.2258    1.0000 </r>
       <r>    1.2264    1.0000 </r>
       <r>    1.3661    1.0000 </r>
       <r>    1.3676    1.0000 </r>
       <r>    1.4108    1.0000 </r>
       <r>    1.4124    1.0000 </r>
       <r>    1.4534    1.0000 </r>
       <r>    1.4546    1.0000 </r>
       <r>    1.4938    1.0000 </r>
       <r>    1.4963    1.0000 </r>
       <r>    1.5570    1.0000 </r>
       <r>    1.5590    1.0000 </r>
       <r>    1.6568    1.0000 </r>
       <r>    1.6576    1.0000 </r>
       <r>    1.6715    1.0000 </r>
       <r>    1.6740    1.0000 </r>
       <r>    1.9547    1.0000 </r>
       <r>    1.9558    1.0000 </r>
       <r>    2.0273    1.0000 </r>
       <r>    2.0287    1.0000 </r>
       <r>    2.1017    1.0000 </r>
       <r>    2.1025    1.0000 </r>
       <r>    2.1415    1.0000 </r>
       <r>    2.1426    1.0000 </r>
       <r>    2.2609    1.0000 </r>
       <r>    2.2616    1.0000 </r>
       <r>    2.3273    1.0000 </r>
       <r>    2.3286    1.0000 </r>
       <r>    2.3923    1.0000 </r>
       <r>    2.3933    1.0000 </r>
       <r>    2.5324    1.0000 </r>
       <r>    2.5334    1.0000 </r>
       <r>    2.5868    1.0000 </r>
       <r>    2.5881    1.0000 </r>
       <r>    2.6731    1.0000 </r>
       <r>    2.6737    1.0000 </r>
       <r>    2.6995    1.0000 </r>
       <r>    2.7005    1.0000 </r>
       <r>    2.8521    1.0000 </r>
       <r>    2.8531    1.0000 </r>
       <r>    2.8763    1.0000 </r>
       <r>    2.8773    1.0000 </r>
       <r>    2.9188    1.0000 </r>
       <r>    2.9208    1.0000 </r>
       <r>    3.0034    1.0000 </r>
       <r>    3.0037    1.0000 </r>
       <r>    3.0403    1.0000 </r>
       <r>    3.0419    1.0000 </r>
       <r>    3.1372    1.0000 </r>
       <r>    3.1376    1.0000 </r>
       <r>    3.2934    1.0000 </r>
       <r>    3.2968    1.0000 </r>
       <r>    3.3905    1.0000 </r>
       <r>    3.3914    1.0000 </r>
       <r>    3.4965    1.0000 </r>
       <r>    3.4967    1.0000 </r>
       <r>    3.5133    1.0000 </r>
       <r>    3.5139    1.0000 </r>
       <r>    3.6153    1.0000 </r>
       <r>    3.6174    1.0000 </r>
       <r>    3.7320    1.0000 </r>
       <r>    3.7339    1.0000 </r>
       <r>    5.6689    0.0000 </r>
       <r>    5.6690    0.0000 </r>
       <r>    5.6763    0.0000 </r>
       <r>    5.6763    0.0000 </r>
       <r>    5.7743    0.0000 </r>
       <r>    5.7744    0.0000 </r>
       <r>    5.7772    0.0000 </r>
       <r>    5.7773    0.0000 </r>
       <r>    7.2680    0.0000 </r>
       <r>    7.2695    0.0000 </r>
       <r>    7.2861    0.0000 </r>
       <r>    7.2893    0.0000 </r>
       <r>    7.3221    0.0000 </r>
       <r>    7.3248    0.0000 </r>
       <r>    7.4258    0.0000 </r>
       <r>    7.4264    0.0000 </r>
       <r>    7.4966    0.0000 </r>
       <r>    7.4968    0.0000 </r>
       <r>    7.5312    0.0000 </r>
       <r>    7.5316    0.0000 </r>
       <r>    7.8314    0.0000 </r>
       <r>    7.8321    0.0000 </r>
       <r>    7.8422    0.0000 </r>
       <r>    7.8431    0.0000 </r>
       <r>    7.8669    0.0000 </r>
       <r>    7.8673    0.0000 </r>
       <r>    7.8815    0.0000 </r>
       <r>    7.8830    0.0000 </r>
       <r>    8.0295    0.0000 </r>
       <r>    8.0305    0.0000 </r>
       <r>    8.1161    0.0000 </r>
       <r>    8.1172    0.0000 </r>
       <r>    8.3344    0.0000 </r>
       <r>    8.3357    0.0000 </r>
       <r>    8.4100    0.0000 </r>
       <r>    8.4123    0.0000 </r>
       <r>    8.6958    0.0000 </r>
       <r>    8.6960    0.0000 </r>
       <r>    8.7628    0.0000 </r>
       <r>    8.7630    0.0000 </r>
       <r>    8.7992    0.0000 </r>
       <r>    8.7994    0.0000 </r>
       <r>    8.9114    0.0000 </r>
       <r>    8.9115    0.0000 </r>
       <r>    9.1903    0.0000 </r>
       <r>    9.1904    0.0000 </r>
       <r>    9.4219    0.0000 </r>
       <r>    9.4242    0.0000 </r>
      </set>
      <set comment="kpoint 3">
       <r>  -40.2383    1.0000 </r>
       <r>  -40.2382    1.0000 </r>
       <r>  -39.8748    1.0000 </r>
       <r>  -39.8738    1.0000 </r>
       <r>  -39.7935    1.0000 </r>
       <r>  -39.7924    1.0000 </r>
       <r>  -39.4329    1.0000 </r>
       <r>  -39.4317    1.0000 </r>
       <r>  -18.8682    1.0000 </r>
       <r>  -18.8669    1.0000 </r>
       <r>  -18.8631    1.0000 </r>
       <r>  -18.8603    1.0000 </r>
       <r>  -18.8023    1.0000 </r>
       <r>  -18.8016    1.0000 </r>
       <r>  -18.7970    1.0000 </r>
       <r>  -18.7958    1.0000 </r>
       <r>  -18.7953    1.0000 </r>
       <r>  -18.7950    1.0000 </r>
       <r>  -18.7892    1.0000 </r>
       <r>  -18.7875    1.0000 </r>
       <r>  -18.6936    1.0000 </r>
       <r>  -18.6924    1.0000 </r>
       <r>  -18.6913    1.0000 </r>
       <r>  -18.6910    1.0000 </r>
       <r>  -18.6853    1.0000 </r>
       <r>  -18.6844    1.0000 </r>
       <r>  -18.6742    1.0000 </r>
       <r>  -18.6717    1.0000 </r>
       <r>  -18.6605    1.0000 </r>
       <r>  -18.6601    1.0000 </r>
       <r>  -18.6569    1.0000 </r>
       <r>  -18.6566    1.0000 </r>
       <r>  -18.6539    1.0000 </r>
       <r>  -18.6536    1.0000 </r>
       <r>  -18.6507    1.0000 </r>
       <r>  -18.6500    1.0000 </r>
       <r>  -18.6498    1.0000 </r>
       <r>  -18.6489    1.0000 </r>
       <r>  -18.6449    1.0000 </r>
       <r>  -18.6448    1.0000 </r>
       <r>  -18.6445    1.0000 </r>
       <r>  -18.6434    1.0000 </r>
       <r>  -18.6421    1.0000 </r>
       <r>  -18.6413    1.0000 </r>
       <r>  -18.6397    1.0000 </r>
       <r>  -18.6391    1.0000 </r>
       <r>  -18.6352    1.0000 </r>
       <r>  -18.6352    1.0000 </r>
       <r>  -18.6318    1.0000 </r>
       <r>  -18.6317    1.0000 </r>
       <r>  -18.6198    1.0000 </r>
       <r>  -18.6197    1.0000 </r>
       <r>  -18.5048    1.0000 </r>
       <r>  -18.5035    1.0000 </r>
       <r>  -18.5030    1.0000 </r>
       <r>  -18.5019    1.0000 </r>
       <r>  -18.4902    1.0000 </r>
       <r>  -18.4901    1.0000 </r>
       <r>  -18.4900    1.0000 </r>
       <r>  -18.4899    1.0000 </r>
       <r>  -18.4897    1.0000 </r>
       <r>  -18.4895    1.0000 </r>
       <r>  -18.4889    1.0000 </r>
       <r>  -18.4888    1.0000 </r>
       <r>  -18.4878    1.0000 </r>
       <r>  -18.4877    1.0000 </r>
       <r>  -18.4816    1.0000 </r>
       <r>  -18.4790    1.0000 </r>
       <r>  -18.4760    1.0000 </r>
       <r>  -18.4747    1.0000 </r>
       <r>  -18.4692    1.0000 </r>
       <r>  -18.4668    1.0000 </r>
       <r>  -18.4630    1.0000 </r>
       <r>  -18.4616    1.0000 </r>
       <r>  -18.4606    1.0000 </r>
       <r>  -18.4605    1.0000 </r>
       <r>  -18.3959    1.0000 </r>
       <r>  -18.3927    1.0000 </r>
       <r>  -18.3921    1.0000 </r>
       <r>  -18.3905    1.0000 </r>
       <r>  -18.2808    1.0000 </r>
       <r>  -18.2794    1.0000 </r>
       <r>  -18.2771    1.0000 </r>
       <r>  -18.2739    1.0000 </r>
       <r>  -18.2671    1.0000 </r>
       <r>  -18.2638    1.0000 </r>
       <r>  -18.2555    1.0000 </r>
       <r>  -18.2540    1.0000 </r>
       <r>  -13.5004    1.0000 </r>
       <r>  -13.4876    1.0000 </r>
       <r>  -13.3888    1.0000 </r>
       <r>  -13.3848    1.0000 </r>
       <r>  -12.7959    1.0000 </r>
       <r>  -12.7953    1.0000 </r>
       <r>  -12.7312    1.0000 </r>
       <r>  -12.7292    1.0000 </r>
       <r>  -12.6796    1.0000 </r>
       <r>  -12.6791    1.0000 </r>
       <r>  -12.6458    1.0000 </r>
       <r>  -12.6302    1.0000 </r>
       <r>  -12.0927    1.0000 </r>
       <r>  -12.0797    1.0000 </r>
       <r>  -12.0357    1.0000 </r>
       <r>  -12.0266    1.0000 </r>
       <r>   -9.3148    1.0000 </r>
       <r>   -9.0374    1.0000 </r>
       <r>   -8.6023    1.0000 </r>
       <r>   -8.5132    1.0000 </r>
       <r>   -8.5107    1.0000 </r>
       <r>   -8.4217    1.0000 </r>
       <r>   -8.3359    1.0000 </r>
       <r>   -8.2479    1.0000 </r>
       <r>   -8.2457    1.0000 </r>
       <r>   -8.1587    1.0000 </r>
       <r>   -8.0461    1.0000 </r>
       <r>   -8.0453    1.0000 </r>
       <r>   -8.0355    1.0000 </r>
       <r>   -8.0351    1.0000 </r>
       <r>   -7.3697    1.0000 </r>
       <r>   -7.3689    1.0000 </r>
       <r>   -6.3748    1.0000 </r>
       <r>   -6.3740    1.0000 </r>
       <r>   -6.3367    1.0000 </r>
       <r>   -6.3365    1.0000 </r>
       <r>   -5.5564    1.0000 </r>
       <r>   -5.4447    1.0000 </r>
       <r>   -5.4197    1.0000 </r>
       <r>   -5.4177    1.0000 </r>
       <r>   -5.3944    1.0000 </r>
       <r>   -5.2834    1.0000 </r>
       <r>   -5.2216    1.0000 </r>
       <r>   -5.1215    1.0000 </r>
       <r>   -5.0612    1.0000 </r>
       <r>   -4.9611    1.0000 </r>
       <r>   -3.8973    1.0000 </r>
       <r>   -3.5858    1.0000 </r>
       <r>   -1.3755    1.0000 </r>
       <r>   -1.2661    1.0000 </r>
       <r>   -1.2615    1.0000 </r>
       <r>   -1.0451    1.0000 </r>
       <r>   -0.5078    1.0000 </r>
       <r>   -0.4657    1.0000 </r>
       <r>   -0.4319    1.0000 </r>
       <r>   -0.4075    1.0000 </r>
       <r>   -0.3831    1.0000 </r>
       <r>   -0.3191    1.0000 </r>
       <r>   -0.3107    1.0000 </r>
       <r>   -0.2348    1.0000 </r>
       <r>   -0.0717    1.0000 </r>
       <r>   -0.0607    1.0000 </r>
       <r>   -0.0100    1.0000 </r>
       <r>    0.1058    1.0000 </r>
       <r>    0.1904    1.0000 </r>
       <r>    0.2960    1.0000 </r>
       <r>    0.3375    1.0000 </r>
       <r>    0.4136    1.0000 </r>
       <r>    0.4895    1.0000 </r>
       <r>    0.5092    1.0000 </r>
       <r>    0.6596    1.0000 </r>
       <r>    0.6973    1.0000 </r>
       <r>    0.7130    1.0000 </r>
       <r>    0.7518    1.0000 </r>
       <r>    0.7978    1.0000 </r>
       <r>    0.8013    1.0000 </r>
       <r>    1.0254    1.0000 </r>
       <r>    1.0377    1.0000 </r>
       <r>    1.1075    1.0000 </r>
       <r>    1.1894    1.0000 </r>
       <r>    1.2530    1.0000 </r>
       <r>    1.2561    1.0000 </r>
       <r>    1.3453    1.0000 </r>
       <r>    1.4034    1.0000 </r>
       <r>    1.4129    1.0000 </r>
       <r>    1.4875    1.0000 </r>
       <r>    1.5135    1.0000 </r>
       <r>    1.5233    1.0000 </r>
       <r>    1.5777    1.0000 </r>
       <r>    1.6107    1.0000 </r>
       <r>    1.6590    1.0000 </r>
       <r>    1.6898    1.0000 </r>
       <r>    1.6941    1.0000 </r>
       <r>    1.7151    1.0000 </r>
       <r>    1.8801    1.0000 </r>
       <r>    1.9150    1.0000 </r>
       <r>    1.9943    1.0000 </r>
       <r>    2.0342    1.0000 </r>
       <r>    2.0643    1.0000 </r>
       <r>    2.0787    1.0000 </r>
       <r>    2.1432    1.0000 </r>
       <r>    2.2362    1.0000 </r>
       <r>    2.2948    1.0000 </r>
       <r>    2.3914    1.0000 </r>
       <r>    2.4174    1.0000 </r>
       <r>    2.4525    1.0000 </r>
       <r>    2.5093    1.0000 </r>
       <r>    2.5582    1.0000 </r>
       <r>    2.5583    1.0000 </r>
       <r>    2.5770    1.0000 </r>
       <r>    2.5879    1.0000 </r>
       <r>    2.5883    1.0000 </r>
       <r>    2.5944    1.0000 </r>
       <r>    2.5959    1.0000 </r>
       <r>    2.7145    1.0000 </r>
       <r>    2.7461    1.0000 </r>
       <r>    2.7690    1.0000 </r>
       <r>    2.7919    1.0000 </r>
       <r>    2.7954    1.0000 </r>
       <r>    2.8090    1.0000 </r>
       <r>    2.8895    1.0000 </r>
       <r>    2.8965    1.0000 </r>
       <r>    2.9385    1.0000 </r>
       <r>    2.9518    1.0000 </r>
       <r>    2.9963    1.0000 </r>
       <r>    3.0215    1.0000 </r>
       <r>    3.0427    1.0000 </r>
       <r>    3.0470    1.0000 </r>
       <r>    3.1085    1.0000 </r>
       <r>    3.1404    1.0000 </r>
       <r>    3.2873    1.0000 </r>
       <r>    3.2878    1.0000 </r>
       <r>    3.3053    1.0000 </r>
       <r>    3.3457    1.0000 </r>
       <r>    3.3999    1.0000 </r>
       <r>    3.4257    1.0000 </r>
       <r>    3.4865    1.0000 </r>
       <r>    3.5498    1.0000 </r>
       <r>    3.5657    1.0000 </r>
       <r>    3.6595    1.0000 </r>
       <r>    4.2197    1.0000 </r>
       <r>    4.2217    1.0000 </r>
       <r>    4.2661    1.0000 </r>
       <r>    4.2695    1.0000 </r>
       <r>    5.1058    0.0000 </r>
       <r>    5.1060    0.0000 </r>
       <r>    5.2451    0.0000 </r>
       <r>    5.2476    0.0000 </r>
       <r>    5.7517    0.0000 </r>
       <r>    5.7523    0.0000 </r>
       <r>    5.8486    0.0000 </r>
       <r>    5.8489    0.0000 </r>
       <r>    6.1281    0.0000 </r>
       <r>    6.1566    0.0000 </r>
       <r>    6.1642    0.0000 </r>
       <r>    6.1873    0.0000 </r>
       <r>    6.2146    0.0000 </r>
       <r>    6.2472    0.0000 </r>
       <r>    6.2476    0.0000 </r>
       <r>    6.2753    0.0000 </r>
       <r>    6.7530    0.0000 </r>
       <r>    6.8474    0.0000 </r>
       <r>    6.9762    0.0000 </r>
       <r>    7.0618    0.0000 </r>
       <r>    7.0958    0.0000 </r>
       <r>    7.2670    0.0000 </r>
       <r>    7.3682    0.0000 </r>
       <r>    7.6403    0.0000 </r>
       <r>    7.6470    0.0000 </r>
       <r>    7.8127    0.0000 </r>
       <r>    7.9279    0.0000 </r>
       <r>    8.0019    0.0000 </r>
       <r>    8.1111    0.0000 </r>
       <r>    8.2868    0.0000 </r>
       <r>    8.2946    0.0000 </r>
       <r>    8.4552    0.0000 </r>
       <r>    8.7060    0.0000 </r>
       <r>    8.7484    0.0000 </r>
       <r>    8.9660    0.0000 </r>
       <r>    8.9761    0.0000 </r>
       <r>    8.9996    0.0000 </r>
       <r>    9.0181    0.0000 </r>
       <r>    9.0645    0.0000 </r>
       <r>    9.0681    0.0000 </r>
       <r>    9.0860    0.0000 </r>
       <r>    9.1415    0.0000 </r>
       <r>    9.1529    0.0000 </r>
       <r>    9.2048    0.0000 </r>
       <r>    9.4568    0.0000 </r>
       <r>    9.4739    0.0000 </r>
       <r>    9.6009    0.0000 </r>
       <r>    9.7922    0.0000 </r>
      </set>
      <set comment="kpoint 4">
       <r>  -40.2383    1.0000 </r>
       <r>  -40.2382    1.0000 </r>
       <r>  -39.8744    1.0000 </r>
       <r>  -39.8741    1.0000 </r>
       <r>  -39.7930    1.0000 </r>
       <r>  -39.7928    1.0000 </r>
       <r>  -39.4328    1.0000 </r>
       <r>  -39.4317    1.0000 </r>
       <r>  -18.8681    1.0000 </r>
       <r>  -18.8669    1.0000 </r>
       <r>  -18.8632    1.0000 </r>
       <r>  -18.8604    1.0000 </r>
       <r>  -18.8018    1.0000 </r>
       <r>  -18.8013    1.0000 </r>
       <r>  -18.7973    1.0000 </r>
       <r>  -18.7956    1.0000 </r>
       <r>  -18.7949    1.0000 </r>
       <r>  -18.7943    1.0000 </r>
       <r>  -18.7902    1.0000 </r>
       <r>  -18.7884    1.0000 </r>
       <r>  -18.6936    1.0000 </r>
       <r>  -18.6924    1.0000 </r>
       <r>  -18.6913    1.0000 </r>
       <r>  -18.6910    1.0000 </r>
       <r>  -18.6853    1.0000 </r>
       <r>  -18.6844    1.0000 </r>
       <r>  -18.6742    1.0000 </r>
       <r>  -18.6717    1.0000 </r>
       <r>  -18.6601    1.0000 </r>
       <r>  -18.6598    1.0000 </r>
       <r>  -18.6559    1.0000 </r>
       <r>  -18.6558    1.0000 </r>
       <r>  -18.6545    1.0000 </r>
       <r>  -18.6544    1.0000 </r>
       <r>  -18.6506    1.0000 </r>
       <r>  -18.6499    1.0000 </r>
       <r>  -18.6496    1.0000 </r>
       <r>  -18.6488    1.0000 </r>
       <r>  -18.6448    1.0000 </r>
       <r>  -18.6447    1.0000 </r>
       <r>  -18.6445    1.0000 </r>
       <r>  -18.6434    1.0000 </r>
       <r>  -18.6414    1.0000 </r>
       <r>  -18.6408    1.0000 </r>
       <r>  -18.6404    1.0000 </r>
       <r>  -18.6402    1.0000 </r>
       <r>  -18.6353    1.0000 </r>
       <r>  -18.6353    1.0000 </r>
       <r>  -18.6321    1.0000 </r>
       <r>  -18.6321    1.0000 </r>
       <r>  -18.6199    1.0000 </r>
       <r>  -18.6198    1.0000 </r>
       <r>  -18.5048    1.0000 </r>
       <r>  -18.5035    1.0000 </r>
       <r>  -18.5030    1.0000 </r>
       <r>  -18.5019    1.0000 </r>
       <r>  -18.4901    1.0000 </r>
       <r>  -18.4901    1.0000 </r>
       <r>  -18.4900    1.0000 </r>
       <r>  -18.4899    1.0000 </r>
       <r>  -18.4896    1.0000 </r>
       <r>  -18.4896    1.0000 </r>
       <r>  -18.4889    1.0000 </r>
       <r>  -18.4888    1.0000 </r>
       <r>  -18.4878    1.0000 </r>
       <r>  -18.4877    1.0000 </r>
       <r>  -18.4813    1.0000 </r>
       <r>  -18.4787    1.0000 </r>
       <r>  -18.4762    1.0000 </r>
       <r>  -18.4750    1.0000 </r>
       <r>  -18.4685    1.0000 </r>
       <r>  -18.4658    1.0000 </r>
[...]
       <r>    8.8087    0.0000 </r>
       <r>    8.8761    0.0000 </r>
       <r>    8.8765    0.0000 </r>
       <r>    8.8809    0.0000 </r>
       <r>    8.8814    0.0000 </r>
       <r>    8.9508    0.0000 </r>
       <r>    8.9516    0.0000 </r>
      </set>
     </set>
    </set>
   </array>
  </eigenvalues>
  <separator name="orbital magnetization" >
   <v name="MAGDIPOLOUT">      0.00000000      0.00000000      0.00000000</v>
  </separator>
  <dos>
   <i name="efermi">      4.42848071 </i>
   <total>
    <array>
     <dimension dim="1">gridpoints</dimension>
     <dimension dim="2">spin</dimension>
     <field>energy</field>
     <field>total</field>
     <field>integrated</field>
     <set>
      <set comment="spin 1">
       <r>   -42.7398     0.0000     0.0000 </r>
       <r>   -42.5564     0.0000     0.0000 </r>
       <r>   -42.3729     0.0000     0.0000 </r>
       <r>   -42.1895     0.0000     0.0000 </r>
       <r>   -42.0060     0.0000     0.0000 </r>
       <r>   -41.8226     0.0000     0.0000 </r>
       <r>   -41.6392     0.0000     0.0000 </r>
       <r>   -41.4557     0.0000     0.0000 </r>
       <r>   -41.2723     0.0000     0.0000 </r>
       <r>   -41.0888     0.0000     0.0000 </r>
       <r>   -40.9054     0.0000     0.0000 </r>
       <r>   -40.7219     0.0000     0.0000 </r>
       <r>   -40.5385     0.0000     0.0000 </r>
       <r>   -40.3550     0.0000     0.0000 </r>
       <r>   -40.1716     0.0000     4.0000 </r>
       <r>   -39.9881     0.0000     4.0000 </r>
       <r>   -39.8047     0.0000     8.0000 </r>
       <r>   -39.6213     0.0000    12.0000 </r>
       <r>   -39.4378     0.0000    12.0000 </r>
       <r>   -39.2544     0.0000    16.0000 </r>
       <r>   -39.0709     0.0000    16.0000 </r>
       <r>   -38.8875     0.0000    16.0000 </r>
       <r>   -38.7040     0.0000    16.0000 </r>
       <r>   -38.5206     0.0000    16.0000 </r>
       <r>   -38.3371     0.0000    16.0000 </r>
       <r>   -38.1537     0.0000    16.0000 </r>
       <r>   -37.9703     0.0000    16.0000 </r>
       <r>   -37.7868     0.0000    16.0000 </r>
       <r>   -37.6034     0.0000    16.0000 </r>
       <r>   -37.4199     0.0000    16.0000 </r>
       <r>   -37.2365     0.0000    16.0000 </r>
       <r>   -37.0530     0.0000    16.0000 </r>
       <r>   -36.8696     0.0000    16.0000 </r>
       <r>   -36.6861     0.0000    16.0000 </r>
       <r>   -36.5027     0.0000    16.0000 </r>
       <r>   -36.3192     0.0000    16.0000 </r>
       <r>   -36.1358     0.0000    16.0000 </r>
       <r>   -35.9524     0.0000    16.0000 </r>
       <r>   -35.7689     0.0000    16.0000 </r>
       <r>   -35.5855     0.0000    16.0000 </r>
       <r>   -35.4020     0.0000    16.0000 </r>
       <r>   -35.2186     0.0000    16.0000 </r>
       <r>   -35.0351     0.0000    16.0000 </r>
       <r>   -34.8517     0.0000    16.0000 </r>
       <r>   -34.6682     0.0000    16.0000 </r>
       <r>   -34.4848     0.0000    16.0000 </r>
       <r>   -34.3014     0.0000    16.0000 </r>
       <r>   -34.1179     0.0000    16.0000 </r>
       <r>   -33.9345     0.0000    16.0000 </r>
       <r>   -33.7510     0.0000    16.0000 </r>
       <r>   -33.5676     0.0000    16.0000 </r>
       <r>   -33.3841     0.0000    16.0000 </r>
       <r>   -33.2007     0.0000    16.0000 </r>
       <r>   -33.0172     0.0000    16.0000 </r>
       <r>   -32.8338     0.0000    16.0000 </r>
       <r>   -32.6503     0.0000    16.0000 </r>
       <r>   -32.4669     0.0000    16.0000 </r>
       <r>   -32.2835     0.0000    16.0000 </r>
       <r>   -32.1000     0.0000    16.0000 </r>
       <r>   -31.9166     0.0000    16.0000 </r>
       <r>   -31.7331     0.0000    16.0000 </r>
       <r>   -31.5497     0.0000    16.0000 </r>
       <r>   -31.3662     0.0000    16.0000 </r>
       <r>   -31.1828     0.0000    16.0000 </r>
       <r>   -30.9993     0.0000    16.0000 </r>
       <r>   -30.8159     0.0000    16.0000 </r>
       <r>   -30.6325     0.0000    16.0000 </r>
       <r>   -30.4490     0.0000    16.0000 </r>
       <r>   -30.2656     0.0000    16.0000 </r>
       <r>   -30.0821     0.0000    16.0000 </r>
       <r>   -29.8987     0.0000    16.0000 </r>
       <r>   -29.7152     0.0000    16.0000 </r>
       <r>   -29.5318     0.0000    16.0000 </r>
       <r>   -29.3483     0.0000    16.0000 </r>
       <r>   -29.1649     0.0000    16.0000 </r>
       <r>   -28.9814     0.0000    16.0000 </r>
       <r>   -28.7980     0.0000    16.0000 </r>
       <r>   -28.6146     0.0000    16.0000 </r>
       <r>   -28.4311     0.0000    16.0000 </r>
       <r>   -28.2477     0.0000    16.0000 </r>
       <r>   -28.0642     0.0000    16.0000 </r>
       <r>   -27.8808     0.0000    16.0000 </r>
       <r>   -27.6973     0.0000    16.0000 </r>
       <r>   -27.5139     0.0000    16.0000 </r>
       <r>   -27.3304     0.0000    16.0000 </r>
       <r>   -27.1470     0.0000    16.0000 </r>
       <r>   -26.9635     0.0000    16.0000 </r>
       <r>   -26.7801     0.0000    16.0000 </r>
       <r>   -26.5967     0.0000    16.0000 </r>
       <r>   -26.4132     0.0000    16.0000 </r>
       <r>   -26.2298     0.0000    16.0000 </r>
       <r>   -26.0463     0.0000    16.0000 </r>
       <r>   -25.8629     0.0000    16.0000 </r>
       <r>   -25.6794     0.0000    16.0000 </r>
       <r>   -25.4960     0.0000    16.0000 </r>
       <r>   -25.3125     0.0000    16.0000 </r>
       <r>   -25.1291     0.0000    16.0000 </r>
       <r>   -24.9457     0.0000    16.0000 </r>
       <r>   -24.7622     0.0000    16.0000 </r>
       <r>   -24.5788     0.0000    16.0000 </r>
       <r>   -24.3953     0.0000    16.0000 </r>
       <r>   -24.2119     0.0000    16.0000 </r>
       <r>   -24.0284     0.0000    16.0000 </r>
       <r>   -23.8450     0.0000    16.0000 </r>
       <r>   -23.6615     0.0000    16.0000 </r>
       <r>   -23.4781     0.0000    16.0000 </r>
       <r>   -23.2946     0.0000    16.0000 </r>
       <r>   -23.1112     0.0000    16.0000 </r>
       <r>   -22.9278     0.0000    16.0000 </r>
       <r>   -22.7443     0.0000    16.0000 </r>
       <r>   -22.5609     0.0000    16.0000 </r>
       <r>   -22.3774     0.0000    16.0000 </r>
       <r>   -22.1940     0.0000    16.0000 </r>
       <r>   -22.0105     0.0000    16.0000 </r>
       <r>   -21.8271     0.0000    16.0000 </r>
       <r>   -21.6436     0.0000    16.0000 </r>
       <r>   -21.4602     0.0000    16.0000 </r>
       <r>   -21.2768     0.0000    16.0000 </r>
       <r>   -21.0933     0.0000    16.0000 </r>
       <r>   -20.9099     0.0000    16.0000 </r>
       <r>   -20.7264     0.0000    16.0000 </r>
       <r>   -20.5430     0.0000    16.0000 </r>
       <r>   -20.3595     0.0000    16.0000 </r>
       <r>   -20.1761     0.0000    16.0000 </r>
       <r>   -19.9926     0.0000    16.0000 </r>
       <r>   -19.8092     0.0000    16.0000 </r>
       <r>   -19.6257     0.0000    16.0000 </r>
       <r>   -19.4423     0.0000    16.0000 </r>
       <r>   -19.2589     0.0000    16.0000 </r>
       <r>   -19.0754     0.0000    16.0000 </r>
       <r>   -18.8920     0.0000    16.0000 </r>
       <r>   -18.7085     0.0000    40.0000 </r>
       <r>   -18.5251     0.0000   104.0000 </r>
       <r>   -18.3416     0.0000   160.0000 </r>
       <r>   -18.1582     0.0000   176.0000 </r>
       <r>   -17.9747     0.0000   176.0000 </r>
       <r>   -17.7913     0.0000   176.0000 </r>
       <r>   -17.6079     0.0000   176.0000 </r>
       <r>   -17.4244     0.0000   176.0000 </r>
       <r>   -17.2410     0.0000   176.0000 </r>
       <r>   -17.0575     0.0000   176.0000 </r>
       <r>   -16.8741     0.0000   176.0000 </r>
       <r>   -16.6906     0.0000   176.0000 </r>
       <r>   -16.5072     0.0000   176.0000 </r>
       <r>   -16.3237     0.0000   176.0000 </r>
       <r>   -16.1403     0.0000   176.0000 </r>
       <r>   -15.9568     0.0000   176.0000 </r>
       <r>   -15.7734     0.0000   176.0000 </r>
       <r>   -15.5900     0.0000   176.0000 </r>
       <r>   -15.4065     0.0000   176.0000 </r>
       <r>   -15.2231     0.0000   176.0000 </r>
       <r>   -15.0396     0.0000   176.0000 </r>
       <r>   -14.8562     0.0000   176.0000 </r>
       <r>   -14.6727     0.0000   176.0000 </r>
       <r>   -14.4893     0.0000   176.0000 </r>
       <r>   -14.3058     0.0000   176.0000 </r>
       <r>   -14.1224     0.0000   176.0000 </r>
       <r>   -13.9390     0.0000   176.0000 </r>
       <r>   -13.7555     0.0000   176.0000 </r>
       <r>   -13.5721     0.0000   176.0000 </r>
       <r>   -13.3886   372.9880   180.0260 </r>
       <r>   -13.2052     0.0000   184.0000 </r>
       <r>   -13.0217     0.0000   184.0000 </r>
       <r>   -12.8383     0.0000   184.0000 </r>
       <r>   -12.6548     0.0000   196.0000 </r>
       <r>   -12.4714     0.0000   200.0000 </r>
       <r>   -12.2879     0.0000   200.0000 </r>
       <r>   -12.1045     0.0000   200.0000 </r>
       <r>   -11.9211     0.0000   208.0000 </r>
       <r>   -11.7376     0.0000   208.0000 </r>
       <r>   -11.5542     0.0000   208.0000 </r>
       <r>   -11.3707     0.0000   208.0000 </r>
       <r>   -11.1873     0.0000   208.0000 </r>
       <r>   -11.0038     0.0000   208.0000 </r>
       <r>   -10.8204     0.0000   208.0000 </r>
       <r>   -10.6369     0.0000   208.0000 </r>
       <r>   -10.4535     0.0000   208.0000 </r>
       <r>   -10.2701     0.0000   208.0000 </r>
       <r>   -10.0866     0.0000   208.0000 </r>
       <r>    -9.9032     0.0000   208.0000 </r>
       <r>    -9.7197     0.0000   208.0000 </r>
       <r>    -9.5363     0.0000   208.0000 </r>
       <r>    -9.3528     0.0000   208.0000 </r>
       <r>    -9.1694     7.7080   208.5811 </r>
       <r>    -8.9859     7.6807   211.8977 </r>
       <r>    -8.8025    17.7293   213.7991 </r>
       <r>    -8.6190     9.0844   215.9871 </r>
       <r>    -8.4356    28.8909   219.1816 </r>
       <r>    -8.2522     0.5884   224.0021 </r>
       <r>    -8.0687    31.7041   227.6391 </r>
       <r>    -7.8853    19.5136   231.9625 </r>
       <r>    -7.7018    97.3172   235.8686 </r>
       <r>    -7.5184    15.1132   238.8630 </r>
       <r>    -7.3349     0.0000   240.0000 </r>
       <r>    -7.1515     0.0000   240.0000 </r>
       <r>    -6.9680     0.0000   240.0000 </r>
       <r>    -6.7846     0.0000   240.0000 </r>
       <r>    -6.6012     0.0000   240.0000 </r>
       <r>    -6.4177     0.0000   240.0000 </r>
       <r>    -6.2343    12.6394   240.8145 </r>
       <r>    -6.0508    30.7469   244.8208 </r>
       <r>    -5.8674     2.6364   248.0059 </r>
       <r>    -5.6839    22.7994   253.3424 </r>
       <r>    -5.5005    18.3731   256.8246 </r>
       <r>    -5.3170    20.2284   260.9454 </r>
       <r>    -5.1336     7.0977   263.6483 </r>
       <r>    -4.9501     3.5734   264.1715 </r>
       <r>    -4.7667     8.3025   265.4810 </r>
       <r>    -4.5833    11.0293   267.2391 </r>
       <r>    -4.3998     5.2608   268.9539 </r>
       <r>    -4.2164     7.6989   270.1605 </r>
       <r>    -4.0329     4.6161   271.3299 </r>
       <r>    -3.8495     1.3282   271.8585 </r>
       <r>    -3.6660     0.2125   271.9943 </r>
       <r>    -3.4826     0.0000   272.0000 </r>
       <r>    -3.2991     0.0000   272.0000 </r>
       <r>    -3.1157     0.0000   272.0000 </r>
       <r>    -2.9323     0.0000   272.0000 </r>
       <r>    -2.7488     0.0000   272.0000 </r>
       <r>    -2.5654     0.0000   272.0000 </r>
       <r>    -2.3819     0.0000   272.0000 </r>
       <r>    -2.1985     0.0000   272.0000 </r>
       <r>    -2.0150     0.0000   272.0000 </r>
       <r>    -1.8316     0.0000   272.0000 </r>
       <r>    -1.6481     0.0000   272.0000 </r>
       <r>    -1.4647     0.0243   272.0001 </r>
       <r>    -1.2812     3.1243   272.2166 </r>
       <r>    -1.0978    10.9297   273.8604 </r>
       <r>    -0.9144    15.6266   276.1283 </r>
       <r>    -0.7309     8.4980   278.2727 </r>
       <r>    -0.5475     5.1971   279.4338 </r>
       <r>    -0.3640    24.1127   281.8895 </r>
       <r>    -0.1806    28.4783   286.3636 </r>
       <r>     0.0029    41.9315   293.6997 </r>
       <r>     0.1863    29.9505   300.5950 </r>
       <r>     0.3698    59.8141   307.8349 </r>
       <r>     0.5532    46.7971   313.8558 </r>
       <r>     0.7366    80.4043   321.2378 </r>
       <r>     0.9201    36.1487   326.1873 </r>
       <r>     1.1035    47.5459   334.7946 </r>
       <r>     1.2870    30.3642   343.2280 </r>
       <r>     1.4704    78.7303   353.2951 </r>
       <r>     1.6539    52.0581   364.0567 </r>
       <r>     1.8373    25.2178   370.5118 </r>
       <r>     2.0208    39.8215   377.4742 </r>
       <r>     2.2042    39.4048   384.5464 </r>
       <r>     2.3877    54.8041   393.1400 </r>
       <r>     2.5711    66.0056   403.5704 </r>
       <r>     2.7545    70.1714   414.5015 </r>
       <r>     2.9380    84.7907   425.6653 </r>
       <r>     3.1214    40.6322   437.9626 </r>
       <r>     3.3049    35.0144   445.7788 </r>
       <r>     3.4883    42.6867   452.6116 </r>
       <r>     3.6718    17.8825   458.0716 </r>
       <r>     3.8552    13.0223   461.5920 </r>
       <r>     4.0387     6.5275   463.3852 </r>
       <r>     4.2221     0.4246   463.9935 </r>
       <r>     4.4056     0.0000   464.0000 </r>
       <r>     4.5890     0.0000   464.0000 </r>
       <r>     4.7724     0.0000   464.0000 </r>
       <r>     4.9559     0.0000   464.0000 </r>
       <r>     5.1393     0.6202   464.0244 </r>
       <r>     5.3228     3.5849   464.3600 </r>
       <r>     5.5062     7.5217   465.3787 </r>
       <r>     5.6897    10.2595   467.1102 </r>
       <r>     5.8731    15.1089   471.1446 </r>
       <r>     6.0566    12.7007   473.6952 </r>
       <r>     6.2400    11.7437   475.8848 </r>
       <r>     6.4234    13.3958   478.1851 </r>
       <r>     6.6069    15.1035   480.7994 </r>
       <r>     6.7903    16.8677   483.7262 </r>
       <r>     6.9738    19.8943   487.0632 </r>
       <r>     7.1572    26.5011   491.2443 </r>
       <r>     7.3407    37.7576   497.4129 </r>
       <r>     7.5241    34.8901   504.6240 </r>
       <r>     7.7076    42.5799   509.9142 </r>
       <r>     7.8910    50.2911   518.0205 </r>
       <r>     8.0745    31.0522   525.1052 </r>
       <r>     8.2579    19.0204   529.3262 </r>
       <r>     8.4413    21.1412   532.8684 </r>
       <r>     8.6248    25.4474   537.1713 </r>
       <r>     8.8082    57.8511   542.9484 </r>
       <r>     8.9917    29.7192   550.6052 </r>
       <r>     9.1751    16.7044   554.7832 </r>
       <r>     9.3586    10.6118   557.2091 </r>
       <r>     9.5420     9.4525   559.0349 </r>
       <r>     9.7255     2.9342   559.8806 </r>
       <r>     9.9089     0.0000   560.0000 </r>
       <r>    10.0923     0.0000   560.0000 </r>
       <r>    10.2758     0.0000   560.0000 </r>
       <r>    10.4592     0.0000   560.0000 </r>
       <r>    10.6427     0.0000   560.0000 </r>
       <r>    10.8261     0.0000   560.0000 </r>
       <r>    11.0096     0.0000   560.0000 </r>
       <r>    11.1930     0.0000   560.0000 </r>
       <r>    11.3765     0.0000   560.0000 </r>
       <r>    11.5599     0.0000   560.0000 </r>
       <r>    11.7434     0.0000   560.0000 </r>
       <r>    11.9268     0.0000   560.0000 </r>
       <r>    12.1102     0.0000   560.0000 </r>
       <r>    12.2937     0.0000   560.0000 </r>
      </set>
     </set>
    </array>
   </total>
  </dos>
 </calculation>
 <structure name="finalpos" >
  <crystal>
   <varray name="basis" >
    <v>      11.17850000       0.00000000       0.00000000 </v>
    <v>       0.00000000       9.57460000       0.00000000 </v>
    <v>       0.00000000       0.00000000      11.18240000 </v>
   </varray>
   <i name="volume">   1196.84853820 </i>
   <varray name="rec_basis" >
    <v>       0.08945744       0.00000000       0.00000000 </v>
    <v>       0.00000000       0.10444301       0.00000000 </v>
    <v>       0.00000000       0.00000000       0.08942624 </v>
   </varray>
  </crystal>
  <varray name="positions" >
   <v>       0.12461000       0.99984000       0.18687000 </v>
   <v>       0.37461000       0.00017000       0.18687000 </v>
   <v>       0.12539000       0.99984000       0.93687000 </v>
   <v>       0.37539000       0.00017000       0.93687000 </v>
   <v>       0.62539000       0.99984000       0.93687000 </v>
   <v>       0.87539000       0.00017000       0.93687000 </v>
   <v>       0.62461000       0.99984000       0.68687000 </v>
   <v>       0.87461000       0.00017000       0.68687000 </v>
   <v>       0.37539000       0.00017000       0.43687000 </v>
   <v>       0.87539000       0.00017000       0.43687000 </v>
   <v>       0.62461000       0.99984000       0.18687000 </v>
   <v>       0.12461000       0.99984000       0.68687000 </v>
   <v>       0.00013000       0.29519000       0.06281000 </v>
   <v>       0.25013000       0.70481000       0.06281000 </v>
   <v>       0.24987000       0.29519000       0.31282000 </v>
   <v>       0.49987000       0.70481000       0.31282000 </v>
   <v>       0.50013000       0.29519000       0.06281000 </v>
   <v>       0.75013000       0.70481000       0.06281000 </v>
   <v>       0.74987000       0.29519000       0.31282000 </v>
   <v>       0.99987000       0.70481000       0.31282000 </v>
   <v>       0.00013000       0.29519000       0.56281000 </v>
   <v>       0.25013000       0.70481000       0.56281000 </v>
   <v>       0.24987000       0.29519000       0.81282000 </v>
   <v>       0.49987000       0.70481000       0.81282000 </v>
   <v>       0.50013000       0.29519000       0.56281000 </v>
   <v>       0.75013000       0.70481000       0.56281000 </v>
   <v>       0.74987000       0.29519000       0.81282000 </v>
   <v>       0.99987000       0.70481000       0.81282000 </v>
   <v>       0.25005000       0.32677000       0.06286000 </v>
   <v>       0.00005000       0.67323000       0.06286000 </v>
   <v>       0.49995000       0.32677000       0.31286000 </v>
   <v>       0.24995000       0.67323000       0.31286000 </v>
   <v>       0.75005000       0.32677000       0.06286000 </v>
   <v>       0.50005000       0.67323000       0.06286000 </v>
   <v>       0.99995000       0.32677000       0.31286000 </v>
   <v>       0.74995000       0.67323000       0.31286000 </v>
   <v>       0.25005000       0.32677000       0.56286000 </v>
   <v>       0.00005000       0.67323000       0.56286000 </v>
   <v>       0.49995000       0.32677000       0.81286000 </v>
   <v>       0.24995000       0.67323000       0.81286000 </v>
   <v>       0.75005000       0.32677000       0.56286000 </v>
   <v>       0.50005000       0.67323000       0.56286000 </v>
   <v>       0.99995000       0.32677000       0.81286000 </v>
   <v>       0.74995000       0.67323000       0.81286000 </v>
   <v>       0.49987000       0.07798000       0.06246000 </v>
   <v>       0.24987000       0.92202000       0.06246000 </v>
   <v>       0.25013000       0.07798000       0.31246000 </v>
   <v>       0.00013000       0.92202000       0.31246000 </v>
   <v>       0.99987000       0.07798000       0.06246000 </v>
   <v>       0.74987000       0.92202000       0.06246000 </v>
   <v>       0.75013000       0.07798000       0.31246000 </v>
   <v>       0.50013000       0.92202000       0.31246000 </v>
   <v>       0.49987000       0.07798000       0.56246000 </v>
   <v>       0.24987000       0.92202000       0.56246000 </v>
   <v>       0.25013000       0.07798000       0.81246000 </v>
   <v>       0.00013000       0.92202000       0.81246000 </v>
   <v>       0.99987000       0.07798000       0.56246000 </v>
   <v>       0.74987000       0.92202000       0.56246000 </v>
   <v>       0.75013000       0.07798000       0.81246000 </v>
   <v>       0.50013000       0.92202000       0.81246000 </v>
  </varray>
 </structure>
</modeling>
