<?xml version="1.0" encoding="ISO-8859-1"?>
<modeling>
 <generator>
  <i name="program" type="string">vasp </i>
  <i name="version" type="string">5.4.4.18Apr17-6-g9f103f2a35  </i>
  <i name="subversion" type="string">(build Jul 31 2017 11:33:29) complex            parallel </i>
  <i name="platform" type="string">LinuxIFC </i>
  <i name="date" type="string">2021 09 20 </i>
  <i name="time" type="string">19:41:24 </i>
 </generator>
 <incar>
  <i type="string" name="SYSTEM"> La2O2S</i>
  <i type="string" name="PREC">normal</i>
  <i type="int" name="NELMIN">     4</i>
  <i type="int" name="IBRION">     2</i>
  <i type="int" name="NFREE">    10</i>
  <i name="EDIFF">      0.00000100</i>
  <i name="EDIFFG">     -0.01000000</i>
  <i type="int" name="NSW">   200</i>
  <i type="int" name="ISIF">     3</i>
  <i name="ENCUT">    600.00000000</i>
  <i name="ENAUG">    900.00000000</i>
  <i type="int" name="ISMEAR">    -5</i>
  <i type="logical" name="LWAVE"> F  </i>
  <i type="logical" name="LCHARG"> F  </i>
  <v type="int" name="KPOINT_BSE">    -1     0     0     0</v>
 </incar>
 <structure name="primitive_cell" >
  <crystal>
   <varray name="basis" >
    <v>      11.17850000       0.00000000       0.00000000 </v>
    <v>       0.00000000       9.57460000       0.00000000 </v>
    <v>       0.00000000       0.00000000      11.18240000 </v>
   </varray>
   <i name="volume">   1196.84853820 </i>
   <varray name="rec_basis" >
    <v>       0.08945744       0.00000000       0.00000000 </v>
    <v>       0.00000000       0.10444301       0.00000000 </v>
    <v>       0.00000000       0.00000000       0.08942624 </v>
   </varray>
  </crystal>
  <varray name="positions" >
   <v>       0.37461000       0.00017000       0.18687000 </v>
   <v>       0.24987000      -0.07798000       0.06246000 </v>
   <v>       0.49987000       0.07798000       0.06246000 </v>
   <v>       0.25013000       0.07798000       0.31246000 </v>
   <v>      -0.49987000      -0.07798000       0.31246000 </v>
   <v>       0.25013000      -0.29519000       0.06281000 </v>
   <v>      -0.49987000       0.29519000       0.06281000 </v>
   <v>       0.24987000       0.29519000       0.31282000 </v>
   <v>       0.49987000      -0.29519000       0.31282000 </v>
   <v>       0.25005000       0.32677000       0.06286000 </v>
   <v>      -0.49995000      -0.32677000       0.06286000 </v>
   <v>       0.24995000      -0.32677000       0.31286000 </v>
   <v>       0.49995000       0.32677000       0.31286000 </v>
   <v>       0.12539000      -0.00016000      -0.06313000 </v>
   <v>      -0.37461000      -0.00016000       0.43687000 </v>
   <v>      -0.37461000      -0.00016000      -0.06313000 </v>
   <v>       0.25013000       0.07798000      -0.18754000 </v>
   <v>      -0.00013000       0.07798000       0.06246000 </v>
   <v>       0.00013000      -0.07798000       0.31246000 </v>
   <v>      -0.49987000      -0.07798000      -0.18754000 </v>
   <v>      -0.25013000      -0.07798000       0.06246000 </v>
   <v>       0.24987000      -0.07798000      -0.43754000 </v>
   <v>      -0.24987000       0.07798000       0.31246000 </v>
   <v>       0.49987000       0.07798000      -0.43754000 </v>
   <v>       0.24987000       0.29519000      -0.18718000 </v>
   <v>       0.00013000       0.29519000       0.06281000 </v>
   <v>       0.49987000      -0.29519000      -0.18718000 </v>
   <v>      -0.00013000      -0.29519000       0.31282000 </v>
   <v>      -0.24987000      -0.29519000       0.06281000 </v>
   <v>      -0.25013000       0.29519000       0.31282000 </v>
   <v>       0.25013000      -0.29519000      -0.43719000 </v>
   <v>      -0.49987000       0.29519000      -0.43719000 </v>
   <v>       0.24995000      -0.32677000      -0.18714000 </v>
   <v>       0.49995000       0.32677000      -0.18714000 </v>
   <v>       0.00005000      -0.32677000       0.06286000 </v>
   <v>      -0.00005000       0.32677000       0.31286000 </v>
   <v>      -0.24995000       0.32677000       0.06286000 </v>
   <v>      -0.25005000      -0.32677000       0.31286000 </v>
   <v>       0.25005000       0.32677000      -0.43714000 </v>
   <v>      -0.49995000      -0.32677000      -0.43714000 </v>
   <v>      -0.12539000       0.00017000       0.18687000 </v>
   <v>       0.37461000       0.00017000      -0.31313000 </v>
   <v>       0.00013000      -0.07798000      -0.18754000 </v>
   <v>      -0.24987000       0.07798000      -0.18754000 </v>
   <v>      -0.00013000       0.07798000      -0.43754000 </v>
   <v>      -0.25013000      -0.07798000      -0.43754000 </v>
   <v>      -0.12461000       0.00017000       0.43687000 </v>
   <v>      -0.12461000       0.00017000      -0.06313000 </v>
   <v>       0.12461000      -0.00016000      -0.31313000 </v>
   <v>      -0.00013000      -0.29519000      -0.18718000 </v>
   <v>      -0.25013000       0.29519000      -0.18718000 </v>
   <v>       0.00013000       0.29519000      -0.43719000 </v>
   <v>      -0.24987000      -0.29519000      -0.43719000 </v>
   <v>      -0.00005000       0.32677000      -0.18714000 </v>
   <v>      -0.25005000      -0.32677000      -0.18714000 </v>
   <v>       0.00005000      -0.32677000      -0.43714000 </v>
   <v>      -0.24995000       0.32677000      -0.43714000 </v>
   <v>      -0.12539000       0.00017000      -0.31313000 </v>
  </varray>
 </structure>
 <varray name="primitive_index" >
  <v type="int" >        1 </v>
  <v type="int" >       44 </v>
  <v type="int" >       43 </v>
  <v type="int" >       45 </v>
  <v type="int" >       50 </v>
  <v type="int" >       12 </v>
  <v type="int" >       15 </v>
  <v type="int" >       13 </v>
  <v type="int" >       14 </v>
  <v type="int" >       27 </v>
  <v type="int" >       32 </v>
  <v type="int" >       30 </v>
  <v type="int" >       29 </v>
  <v type="int" >        3 </v>
  <v type="int" >        2 </v>
  <v type="int" >        8 </v>
  <v type="int" >       53 </v>
  <v type="int" >       47 </v>
  <v type="int" >       46 </v>
  <v type="int" >       58 </v>
  <v type="int" >       48 </v>
  <v type="int" >       52 </v>
  <v type="int" >       49 </v>
  <v type="int" >       51 </v>
  <v type="int" >       21 </v>
  <v type="int" >       11 </v>
  <v type="int" >       22 </v>
  <v type="int" >       18 </v>
  <v type="int" >       16 </v>
  <v type="int" >       17 </v>
  <v type="int" >       20 </v>
  <v type="int" >       23 </v>
  <v type="int" >       38 </v>
  <v type="int" >       37 </v>
  <v type="int" >       28 </v>
  <v type="int" >       33 </v>
  <v type="int" >       31 </v>
  <v type="int" >       34 </v>
  <v type="int" >       35 </v>
  <v type="int" >       40 </v>
  <v type="int" >        6 </v>
  <v type="int" >        4 </v>
  <v type="int" >       54 </v>
  <v type="int" >       57 </v>
  <v type="int" >       55 </v>
  <v type="int" >       56 </v>
  <v type="int" >        5 </v>
  <v type="int" >        9 </v>
  <v type="int" >        7 </v>
  <v type="int" >       26 </v>
  <v type="int" >       25 </v>
  <v type="int" >       19 </v>
  <v type="int" >       24 </v>
  <v type="int" >       41 </v>
  <v type="int" >       42 </v>
  <v type="int" >       36 </v>
  <v type="int" >       39 </v>
  <v type="int" >       10 </v>
 </varray>
 <kpoints>
  <generation param="Gamma">
   <v type="int" name="divisions">       2        2        2 </v>
   <v name="usershift">      0.00000000       0.00000000       0.00000000 </v>
   <v name="genvec1">      0.50000000       0.00000000       0.00000000 </v>
   <v name="genvec2">      0.00000000       0.50000000       0.00000000 </v>
   <v name="genvec3">      0.00000000       0.00000000       0.50000000 </v>
   <v name="shift">      0.00000000       0.00000000       0.00000000 </v>
  </generation>
  <varray name="kpointlist" >
   <v>       0.00000000       0.00000000       0.00000000 </v>
   <v>       0.50000000       0.00000000       0.00000000 </v>
   <v>       0.00000000       0.50000000       0.00000000 </v>
   <v>       0.50000000       0.50000000       0.00000000 </v>
   <v>       0.00000000       0.00000000       0.50000000 </v>
   <v>       0.50000000       0.00000000       0.50000000 </v>
   <v>       0.00000000       0.50000000       0.50000000 </v>
   <v>       0.50000000       0.50000000       0.50000000 </v>
  </varray>
  <varray name="weights" >
   <v>       0.12500000 </v>
   <v>       0.12500000 </v>
   <v>       0.12500000 </v>
   <v>       0.12500000 </v>
   <v>       0.12500000 </v>
   <v>       0.12500000 </v>
   <v>       0.12500000 </v>
   <v>       0.12500000 </v>
  </varray>
  <varray name="tetrahedronlist"  type="int" >
   <v type="int" >        2        1        2        4        5 </v>
   <v type="int" >        2        1        3        4        5 </v>
   <v type="int" >        2        3        4        5        7 </v>
   <v type="int" >        2        2        4        5        6 </v>
   <v type="int" >        2        4        5        6        8 </v>
   <v type="int" >        2        4        5        7        8 </v>
   <v type="int" >        2        1        2        3        6 </v>
   <v type="int" >        2        2        3        4        6 </v>
   <v type="int" >        2        3        4        6        8 </v>
   <v type="int" >        2        1        3        5        6 </v>
   <v type="int" >        2        3        5        6        7 </v>
   <v type="int" >        2        3        6        7        8 </v>
   <v type="int" >        2        2        3        4        7 </v>
   <v type="int" >        2        1        2        3        7 </v>
   <v type="int" >        2        1        2        5        7 </v>
   <v type="int" >        2        2        4        7        8 </v>
   <v type="int" >        2        2        6        7        8 </v>
   <v type="int" >        2        2        5        6        7 </v>
   <v type="int" >        2        1        3        4        8 </v>
   <v type="int" >        2        1        2        4        8 </v>
   <v type="int" >        2        1        2        6        8 </v>
   <v type="int" >        2        1        3        7        8 </v>
   <v type="int" >        2        1        5        7        8 </v>
   <v type="int" >        2        1        5        6        8 </v>
  </varray>
  <i name="volumeweight">      0.02083333 </i>
 </kpoints>
 <parameters>
  <separator name="general" >
   <i type="string" name="SYSTEM">La2O2S</i>
   <i type="logical" name="LCOMPAT"> F  </i>
  </separator>
  <separator name="electronic" >
   <i type="string" name="PREC">normal</i>
   <i name="ENMAX">    600.00000000</i>
   <i name="ENAUG">    900.00000000</i>
   <i name="EDIFF">      0.00000100</i>
   <i type="int" name="IALGO">    38</i>
   <i type="int" name="IWAVPR">    11</i>
   <i type="int" name="NBANDS">   280</i>
   <i name="NELECT">    456.00000000</i>
   <i type="int" name="TURBO">     0</i>
   <i type="int" name="IRESTART">     0</i>
   <i type="int" name="NREBOOT">     0</i>
   <i type="int" name="NMIN">     0</i>
   <i name="EREF">      0.00000000</i>
   <separator name="electronic smearing" >
    <i type="int" name="ISMEAR">    -5</i>
    <i name="SIGMA">      0.20000000</i>
    <i name="KSPACING">      0.50000000</i>
    <i type="logical" name="KGAMMA"> T  </i>
   </separator>
   <separator name="electronic projectors" >
    <i type="logical" name="LREAL"> F  </i>
    <v name="ROPT">      0.00000000      0.00000000      0.00000000      0.00000000      0.00000000</v>
    <i type="int" name="LMAXPAW">  -100</i>
    <i type="int" name="LMAXMIX">     2</i>
    <i type="logical" name="NLSPLINE"> F  </i>
   </separator>
   <separator name="electronic startup" >
    <i type="int" name="ISTART">     0</i>
    <i type="int" name="ICHARG">     2</i>
    <i type="int" name="INIWAV">     1</i>
   </separator>
   <separator name="electronic spin" >
    <i type="int" name="ISPIN">     1</i>
    <i type="logical" name="LNONCOLLINEAR"> F  </i>
    <v name="MAGMOM">      1.00000000      1.00000000      1.00000000      1.00000000      1.00000000      1.00000000      1.00000000      1.00000000      1.00000000      1.00000000      1.00000000      1.00000000      1.00000000      1.00000000      1.00000000      1.00000000      1.00000000      1.00000000      1.00000000      1.00000000
      1.00000000      1.00000000      1.00000000      1.00000000      1.00000000      1.00000000      1.00000000      1.00000000      1.00000000      1.00000000      1.00000000      1.00000000      1.00000000      1.00000000      1.00000000      1.00000000      1.00000000      1.00000000      1.00000000      1.00000000
      1.00000000      1.00000000      1.00000000      1.00000000      1.00000000      1.00000000      1.00000000      1.00000000      1.00000000      1.00000000      1.00000000      1.00000000      1.00000000      1.00000000      1.00000000      1.00000000      1.00000000      1.00000000</v>
    <i name="NUPDOWN">     -1.00000000</i>
    <i type="logical" name="LSORBIT"> F  </i>
    <v name="SAXIS">      0.00000000      0.00000000      1.00000000</v>
    <i type="logical" name="LSPIRAL"> F  </i>
    <v name="QSPIRAL">      0.00000000      0.00000000      0.00000000</v>
    <i type="logical" name="LZEROZ"> F  </i>
   </separator>
   <separator name="electronic exchange-correlation" >
    <i type="logical" name="LASPH"> F  </i>
    <i type="logical" name="LMETAGGA"> F  </i>
   </separator>
   <separator name="electronic convergence" >
    <i type="int" name="NELM">    60</i>
    <i type="int" name="NELMDL">    -5</i>
    <i type="int" name="NELMIN">     4</i>
    <i name="ENINI">    600.00000000</i>
    <separator name="electronic convergence detail" >
     <i type="logical" name="LDIAG"> T  </i>
     <i type="logical" name="LSUBROT"> F  </i>
     <i name="WEIMIN">      0.00100000</i>
     <i name="EBREAK">      0.00000000</i>
     <i name="DEPER">      0.30000000</i>
     <i type="int" name="NRMM">     4</i>
     <i name="TIME">      0.40000000</i>
    </separator>
   </separator>
   <separator name="electronic mixer" >
    <i name="AMIX">      0.40000000</i>
    <i name="BMIX">      1.00000000</i>
    <i name="AMIN">      0.10000000</i>
    <i name="AMIX_MAG">      1.60000000</i>
    <i name="BMIX_MAG">      1.00000000</i>
    <separator name="electronic mixer details" >
     <i type="int" name="IMIX">     4</i>
     <i type="logical" name="MIXFIRST"> F  </i>
     <i type="int" name="MAXMIX">   -45</i>
     <i name="WC">    100.00000000</i>
     <i type="int" name="INIMIX">     1</i>
     <i type="int" name="MIXPRE">     1</i>
     <i type="int" name="MREMOVE">     5</i>
    </separator>
   </separator>
   <separator name="electronic dipolcorrection" >
    <i type="logical" name="LDIPOL"> F  </i>
    <i type="logical" name="LMONO"> F  </i>
    <i type="int" name="IDIPOL">     0</i>
    <i name="EPSILON">      1.00000000</i>
    <v name="DIPOL">   -100.00000000   -100.00000000   -100.00000000</v>
    <i name="EFIELD">      0.00000000</i>
   </separator>
  </separator>
  <separator name="grids" >
   <i type="int" name="NGX">    70</i>
   <i type="int" name="NGY">    60</i>
   <i type="int" name="NGZ">    70</i>
   <i type="int" name="NGXF">   140</i>
   <i type="int" name="NGYF">   120</i>
   <i type="int" name="NGZF">   140</i>
   <i type="logical" name="ADDGRID"> F  </i>
  </separator>
  <separator name="ionic" >
   <i type="int" name="NSW">   200</i>
   <i type="int" name="IBRION">     2</i>
   <i type="int" name="MDALGO">     0</i>
   <i type="int" name="ISIF">     3</i>
   <i name="PSTRESS">      0.00000000</i>
   <i name="EDIFFG">     -0.01000000</i>
   <i type="int" name="NFREE">    10</i>
   <i name="POTIM">      0.50000000</i>
   <i name="SMASS">     -3.00000000</i>
   <i name="SCALEE">      1.00000000</i>
  </separator>
  <separator name="ionic md" >
   <i name="TEBEG">      0.00010000</i>
   <i name="TEEND">      0.00010000</i>
   <i type="int" name="NBLOCK">     1</i>
   <i type="int" name="KBLOCK">   200</i>
   <i type="int" name="NPACO">   256</i>
   <i name="APACO">     16.00000000</i>
  </separator>
  <separator name="symmetry" >
   <i type="int" name="ISYM">     2</i>
   <i name="SYMPREC">      0.00001000</i>
  </separator>
  <separator name="dos" >
   <i type="int" name="LORBIT">     0</i>
   <v name="RWIGS">     -1.00000000     -1.00000000     -1.00000000     -1.00000000     -1.00000000</v>
   <i type="int" name="NEDOS">   301</i>
   <i name="EMIN">     10.00000000</i>
   <i name="EMAX">    -10.00000000</i>
   <i name="EFERMI">      0.00000000</i>
  </separator>
  <separator name="writing" >
   <i type="int" name="NWRITE">     2</i>
   <i type="logical" name="LWAVE"> F  </i>
   <i type="logical" name="LDOWNSAMPLE"> F  </i>
   <i type="logical" name="LCHARG"> F  </i>
   <i type="logical" name="LPARD"> F  </i>
   <i type="logical" name="LVTOT"> F  </i>
   <i type="logical" name="LVHAR"> F  </i>
   <i type="logical" name="LELF"> F  </i>
   <i type="logical" name="LOPTICS"> F  </i>
   <v name="STM">      0.00000000      0.00000000      0.00000000      0.00000000      0.00000000      0.00000000      0.00000000</v>
  </separator>
  <separator name="performance" >
   <i type="int" name="NPAR">    28</i>
   <i type="int" name="NSIM">     4</i>
   <i type="int" name="NBLK">    -1</i>
   <i type="logical" name="LPLANE"> T  </i>
   <i type="logical" name="LSCALAPACK"> T  </i>
   <i type="logical" name="LSCAAWARE"> F  </i>
   <i type="logical" name="LSCALU"> F  </i>
   <i type="logical" name="LASYNC"> F  </i>
   <i type="logical" name="LORBITALREAL"> F  </i>
  </separator>
  <separator name="miscellaneous" >
   <i type="int" name="IDIOT">     3</i>
   <i type="int" name="ISPECIAL">     0</i>
   <i type="logical" name="LMUSIC"> F  </i>
   <v name="POMASS">      7.01000000     24.30500000    208.98000000     32.06600000     16.00000000</v>
   <v name="DARWINR">      0.00000000      0.00000000      0.00000000      0.00000000      0.00000000</v>
   <v name="DARWINV">      1.00000000      1.00000000      1.00000000      1.00000000      1.00000000</v>
   <i type="logical" name="LCORR"> T  </i>
  </separator>
  <i type="logical" name="GGA_COMPAT"> T  </i>
  <i type="logical" name="LBERRY"> F  </i>
  <i type="int" name="ICORELEVEL">     0</i>
  <i type="logical" name="LDAU"> F  </i>
  <i type="int" name="I_CONSTRAINED_M">     0</i>
  <separator name="electronic exchange-correlation" >
   <i type="string" name="GGA">--</i>
   <i type="int" name="VOSKOWN">     0</i>
   <i type="logical" name="LHFCALC"> F  </i>
   <i type="string" name="PRECFOCK"></i>
   <i type="logical" name="LSYMGRAD"> F  </i>
   <i type="logical" name="LHFONE"> F  </i>
   <i type="logical" name="LRHFCALC"> F  </i>
   <i type="logical" name="LTHOMAS"> F  </i>
   <i type="logical" name="LMODELHF"> F  </i>
   <i name="ENCUT4O">     -1.00000000</i>
   <i type="int" name="EXXOEP">     0</i>
   <i type="int" name="FOURORBIT">     0</i>
   <i name="AEXX">      0.00000000</i>
   <i name="HFALPHA">      0.00000000</i>
   <i name="MCALPHA">      0.00000000</i>
   <i name="ALDAX">      1.00000000</i>
   <i name="AGGAX">      1.00000000</i>
   <i name="ALDAC">      1.00000000</i>
   <i name="AGGAC">      1.00000000</i>
   <i type="int" name="NKREDX">     1</i>
   <i type="int" name="NKREDY">     1</i>
   <i type="int" name="NKREDZ">     1</i>
   <i type="logical" name="SHIFTRED"> F  </i>
   <i type="logical" name="ODDONLY"> F  </i>
   <i type="logical" name="EVENONLY"> F  </i>
   <i type="int" name="LMAXFOCK">     0</i>
   <i type="int" name="NMAXFOCKAE">     0</i>
   <i type="logical" name="LFOCKAEDFT"> F  </i>
   <i name="HFSCREEN">      0.00000000</i>
   <i name="HFSCREENC">      0.00000000</i>
   <i type="int" name="NBANDSGWLOW">     0</i>
  </separator>
  <separator name="vdW DFT" >
   <i type="logical" name="LUSE_VDW"> F  </i>
   <i name="Zab_VDW">     -0.84910000</i>
   <i name="PARAM1">      0.12340000</i>
   <i name="PARAM2">      1.00000000</i>
   <i name="PARAM3">      0.00000000</i>
  </separator>
  <separator name="model GW" >
   <i type="int" name="MODEL_GW">     0</i>
   <i name="MODEL_EPS0">     12.38119177</i>
   <i name="MODEL_ALPHA">      1.00000000</i>
  </separator>
  <separator name="linear response parameters" >
   <i type="logical" name="LEPSILON"> F  </i>
   <i type="logical" name="LRPA"> F  </i>
   <i type="logical" name="LNABLA"> F  </i>
   <i type="logical" name="LVEL"> F  </i>
   <i type="int" name="KINTER">     0</i>
   <i name="CSHIFT">      0.10000000</i>
   <i name="OMEGAMAX">     -1.00000000</i>
   <i name="DEG_THRESHOLD">      0.00200000</i>
   <i name="RTIME">     -0.10000000</i>
   <i name="WPLASMAI">      0.00000000</i>
   <v name="DFIELD">      0.00000000      0.00000000      0.00000000</v>
   <v name="WPLASMA">      0.00000000      0.00000000      0.00000000      0.00000000      0.00000000      0.00000000      0.00000000      0.00000000      0.00000000</v>
  </separator>
  <separator name="orbital magnetization" >
   <i type="logical" name="NUCIND"> F  </i>
   <v name="MAGPOS">      0.00000000      0.00000000      0.00000000</v>
   <i type="logical" name="LNICSALL"> T  </i>
   <i type="logical" name="ORBITALMAG"> F  </i>
   <i type="logical" name="LMAGBLOCH"> F  </i>
   <i type="logical" name="LCHIMAG"> F  </i>
   <i type="logical" name="LGAUGE"> T  </i>
   <i type="int" name="MAGATOM">     0</i>
   <v name="MAGDIPOL">      0.00000000      0.00000000      0.00000000</v>
   <v name="AVECCONST">      0.00000000      0.00000000      0.00000000</v>
  </separator>
  <separator name="response functions" >
   <i type="logical" name="LADDER"> F  </i>
   <i type="logical" name="LRPAFORCE"> F  </i>
   <i type="logical" name="LFXC"> F  </i>
   <i type="logical" name="LHARTREE"> T  </i>
   <i type="int" name="IBSE">     0</i>
   <v type="int" name="KPOINT">    -1     0     0     0</v>
   <i type="logical" name="LTCTE"> F  </i>
   <i type="logical" name="LTETE"> F  </i>
   <i type="logical" name="LTRIPLET"> F  </i>
   <i type="logical" name="LFXCEPS"> F  </i>
   <i type="logical" name="LFXHEG"> F  </i>
   <i type="int" name="NATURALO">     2</i>
   <i type="logical" name="L2ORDER"> F  </i>
   <i type="logical" name="LMP2LT"> F  </i>
   <i type="logical" name="LUSEW"> F  </i>
   <i name="ENCUTGW">     -2.00000000</i>
   <i name="ENCUTGWSOFT">     -2.00000000</i>
   <i name="ENCUTLF">     -1.00000000</i>
   <i type="int" name="LMAXMP2">    -1</i>
   <i name="SCISSOR">      0.00000000</i>
   <i type="int" name="NOMEGA">     0</i>
   <i type="int" name="NOMEGAR">     0</i>
   <i type="int" name="NBANDSGW">    -1</i>
   <i type="int" name="NBANDSO">    -1</i>
   <i type="int" name="NBANDSV">    -1</i>
   <i type="int" name="NELM">     1</i>
   <i type="int" name="NELMHF">     1</i>
   <i type="int" name="DIM">     3</i>
   <i type="int" name="ANTIRES">     0</i>
   <i name="OMEGAMAX">    -30.00000000</i>
   <i name="OMEGAMIN">    -30.00000000</i>
   <i name="OMEGATL">   -200.00000000</i>
   <i type="int" name="OMEGAGRID">   140</i>
   <i name="CSHIFT">     -0.10000000</i>
   <i type="logical" name="SELFENERGY"> F  </i>
   <i type="logical" name="LSPECTRAL"> F  </i>
   <i type="logical" name="LSPECTRALGW"> F  </i>
   <i type="logical" name="LSINGLES"> F  </i>
   <i type="logical" name="LFERMIGW"> F  </i>
   <i type="logical" name="ODDONLYGW"> F  </i>
   <i type="logical" name="EVENONLYGW"> F  </i>
   <i type="int" name="NKREDLFX">     1</i>
   <i type="int" name="NKREDLFY">     1</i>
   <i type="int" name="NKREDLFZ">     1</i>
   <i type="int" name="MAXMEM">  2800</i>
   <i type="int" name="TELESCOPE">     0</i>
   <i type="int" name="TAUPAR">     1</i>
   <i type="int" name="OMEGAPAR">    -1</i>
   <i name="LAMBDA">      1.00000000</i>
  </separator>
  <separator name="External order field" >
   <i name="OFIELD_KAPPA">      0.00000000</i>
   <v name="OFIELD_K">      0.00000000      0.00000000      0.00000000</v>
   <i name="OFIELD_Q6_NEAR">      0.00000000</i>
   <i name="OFIELD_Q6_FAR">      0.00000000</i>
   <i name="OFIELD_A">      0.00000000</i>
  </separator>
 </parameters>
 <atominfo>
  <atoms>      58 </atoms>
  <types>       5 </types>
  <array name="atoms" >
   <dimension dim="1">ion</dimension>
   <field type="string">element</field>
   <field type="int">atomtype</field>
   <set>
    <rc><c>Li</c><c>   1</c></rc>
    <rc><c>Li</c><c>   1</c></rc>
    <rc><c>Li</c><c>   1</c></rc>
    <rc><c>Li</c><c>   1</c></rc>
    <rc><c>Mg</c><c>   2</c></rc>
    <rc><c>Mg</c><c>   2</c></rc>
    <rc><c>Mg</c><c>   2</c></rc>
    <rc><c>Mg</c><c>   2</c></rc>
    <rc><c>Mg</c><c>   2</c></rc>
    <rc><c>Mg</c><c>   2</c></rc>
    <rc><c>Bi</c><c>   3</c></rc>
    <rc><c>Bi</c><c>   3</c></rc>
    <rc><c>Bi</c><c>   3</c></rc>
    <rc><c>Bi</c><c>   3</c></rc>
    <rc><c>Bi</c><c>   3</c></rc>
    <rc><c>Bi</c><c>   3</c></rc>
    <rc><c>Bi</c><c>   3</c></rc>
    <rc><c>Bi</c><c>   3</c></rc>
    <rc><c>Bi</c><c>   3</c></rc>
    <rc><c>Bi</c><c>   3</c></rc>
    <rc><c>Bi</c><c>   3</c></rc>
    <rc><c>Bi</c><c>   3</c></rc>
    <rc><c>Bi</c><c>   3</c></rc>
    <rc><c>Bi</c><c>   3</c></rc>
    <rc><c>Bi</c><c>   3</c></rc>
    <rc><c>Bi</c><c>   3</c></rc>
    <rc><c>S </c><c>   4</c></rc>
    <rc><c>S </c><c>   4</c></rc>
    <rc><c>S </c><c>   4</c></rc>
    <rc><c>S </c><c>   4</c></rc>
    <rc><c>S </c><c>   4</c></rc>
    <rc><c>S </c><c>   4</c></rc>
    <rc><c>S </c><c>   4</c></rc>
    <rc><c>S </c><c>   4</c></rc>
    <rc><c>S </c><c>   4</c></rc>
    <rc><c>S </c><c>   4</c></rc>
    <rc><c>S </c><c>   4</c></rc>
    <rc><c>S </c><c>   4</c></rc>
    <rc><c>S </c><c>   4</c></rc>
    <rc><c>S </c><c>   4</c></rc>
    <rc><c>S </c><c>   4</c></rc>
    <rc><c>S </c><c>   4</c></rc>
    <rc><c>O </c><c>   5</c></rc>
    <rc><c>O </c><c>   5</c></rc>
    <rc><c>O </c><c>   5</c></rc>
    <rc><c>O </c><c>   5</c></rc>
    <rc><c>O </c><c>   5</c></rc>
    <rc><c>O </c><c>   5</c></rc>
    <rc><c>O </c><c>   5</c></rc>
    <rc><c>O </c><c>   5</c></rc>
    <rc><c>O </c><c>   5</c></rc>
    <rc><c>O </c><c>   5</c></rc>
    <rc><c>O </c><c>   5</c></rc>
    <rc><c>O </c><c>   5</c></rc>
    <rc><c>O </c><c>   5</c></rc>
    <rc><c>O </c><c>   5</c></rc>
    <rc><c>O </c><c>   5</c></rc>
    <rc><c>O </c><c>   5</c></rc>
   </set>
  </array>
  <array name="atomtypes" >
   <dimension dim="1">type</dimension>
   <field type="int">atomspertype</field>
   <field type="string">element</field>
   <field>mass</field>
   <field>valence</field>
   <field type="string">pseudopotential</field>
   <set>
    <rc><c>   4</c><c>Li</c><c>      7.01000000</c><c>      3.00000000</c><c>  PAW_PBE Li_sv 10Sep2004               </c></rc>
    <rc><c>   6</c><c>Mg</c><c>     24.30500000</c><c>      2.00000000</c><c>  PAW_PBE Mg 13Apr2007                  </c></rc>
    <rc><c>  16</c><c>Bi</c><c>    208.98000000</c><c>     15.00000000</c><c>  PAW_PBE Bi_d 06Sep2000                </c></rc>
    <rc><c>  16</c><c>S </c><c>     32.06600000</c><c>      6.00000000</c><c>  PAW_PBE S 06Sep2000                   </c></rc>
    <rc><c>  16</c><c>O </c><c>     16.00000000</c><c>      6.00000000</c><c>  PAW_PBE O 08Apr2002                   </c></rc>
   </set>
  </array>
 </atominfo>
 <structure name="initialpos" >
  <crystal>
   <varray name="basis" >
    <v>      11.17850000       0.00000000       0.00000000 </v>
    <v>       0.00000000       9.57460000       0.00000000 </v>
    <v>       0.00000000       0.00000000      11.18240000 </v>
   </varray>
   <i name="volume">   1196.84853820 </i>
   <varray name="rec_basis" >
    <v>       0.08945744       0.00000000       0.00000000 </v>
    <v>       0.00000000       0.10444301       0.00000000 </v>
    <v>       0.00000000       0.00000000       0.08942624 </v>
   </varray>
  </crystal>
  <varray name="positions" >
   <v>       0.37461000       0.00017000       0.18687000 </v>
   <v>       0.62539000       0.99984000       0.43687000 </v>
   <v>       0.12539000       0.99984000       0.93687000 </v>
   <v>       0.37461000       0.00017000       0.68687000 </v>
   <v>       0.87539000       0.00017000       0.43687000 </v>
   <v>       0.87461000       0.00017000       0.18687000 </v>
   <v>       0.12461000       0.99984000       0.68687000 </v>
   <v>       0.62539000       0.99984000       0.93687000 </v>
   <v>       0.87539000       0.00017000       0.93687000 </v>
   <v>       0.87461000       0.00017000       0.68687000 </v>
   <v>       0.00013000       0.29519000       0.06281000 </v>
   <v>       0.25013000       0.70481000       0.06281000 </v>
   <v>       0.24987000       0.29519000       0.31282000 </v>
   <v>       0.49987000       0.70481000       0.31282000 </v>
   <v>       0.50013000       0.29519000       0.06281000 </v>
   <v>       0.75013000       0.70481000       0.06281000 </v>
   <v>       0.74987000       0.29519000       0.31282000 </v>
   <v>       0.99987000       0.70481000       0.31282000 </v>
   <v>       0.00013000       0.29519000       0.56281000 </v>
   <v>       0.25013000       0.70481000       0.56281000 </v>
   <v>       0.24987000       0.29519000       0.81282000 </v>
   <v>       0.49987000       0.70481000       0.81282000 </v>
   <v>       0.50013000       0.29519000       0.56281000 </v>
   <v>       0.75013000       0.70481000       0.56281000 </v>
   <v>       0.74987000       0.29519000       0.81282000 </v>
   <v>       0.99987000       0.70481000       0.81282000 </v>
   <v>       0.25005000       0.32677000       0.06286000 </v>
   <v>       0.00005000       0.67323000       0.06286000 </v>
   <v>       0.49995000       0.32677000       0.31286000 </v>
   <v>       0.24995000       0.67323000       0.31286000 </v>
   <v>       0.75005000       0.32677000       0.06286000 </v>
   <v>       0.50005000       0.67323000       0.06286000 </v>
   <v>       0.99995000       0.32677000       0.31286000 </v>
   <v>       0.74995000       0.67323000       0.31286000 </v>
   <v>       0.25005000       0.32677000       0.56286000 </v>
   <v>       0.00005000       0.67323000       0.56286000 </v>
   <v>       0.49995000       0.32677000       0.81286000 </v>
   <v>       0.24995000       0.67323000       0.81286000 </v>
   <v>       0.75005000       0.32677000       0.56286000 </v>
   <v>       0.50005000       0.67323000       0.56286000 </v>
   <v>       0.99995000       0.32677000       0.81286000 </v>
   <v>       0.74995000       0.67323000       0.81286000 </v>
   <v>       0.49987000       0.07798000       0.06246000 </v>
   <v>       0.24987000       0.92202000       0.06246000 </v>
   <v>       0.25013000       0.07798000       0.31246000 </v>
   <v>       0.00013000       0.92202000       0.31246000 </v>
   <v>       0.99987000       0.07798000       0.06246000 </v>
   <v>       0.74987000       0.92202000       0.06246000 </v>
   <v>       0.75013000       0.07798000       0.31246000 </v>
   <v>       0.50013000       0.92202000       0.31246000 </v>
   <v>       0.49987000       0.07798000       0.56246000 </v>
   <v>       0.24987000       0.92202000       0.56246000 </v>
   <v>       0.25013000       0.07798000       0.81246000 </v>
   <v>       0.00013000       0.92202000       0.81246000 </v>
   <v>       0.99987000       0.07798000       0.56246000 </v>
   <v>       0.74987000       0.92202000       0.56246000 </v>
   <v>       0.75013000       0.07798000       0.81246000 </v>
   <v>       0.50013000       0.92202000       0.81246000 </v>
  </varray>
 </structure>
 <calculation>
  <scstep>
   <time name="dav">   60.03   60.09</time>
   <time name="total">   60.13   60.23</time>
   <energy>
    <i name="alphaZ">   1054.17224280 </i>
    <i name="ewald"> -30192.37602351 </i>
    <i name="hartreedc"> -12690.92578253 </i>
    <i name="XCdc">   1173.47153883 </i>
    <i name="pawpsdc">  36541.05238669 </i>
    <i name="pawaedc"> -35795.85877930 </i>
    <i name="eentropy">      0.00000000 </i>
    <i name="bandstr">   1911.63209130 </i>
    <i name="atom">  43643.51795008 </i>
    <i name="e_fr_energy">   5644.68562435 </i>
    <i name="e_wo_entrp">   5644.68562435 </i>
    <i name="e_0_energy">   5644.68562435 </i>
   </energy>
  </scstep>
  <scstep>
   <time name="dav">   61.14   61.15</time>
   <time name="total">   61.15   61.16</time>
   <energy>
    <i name="e_fr_energy">    732.72225695 </i>
    <i name="e_wo_entrp">    732.72225695 </i>
    <i name="e_0_energy">    732.72225695 </i>
   </energy>
  </scstep>
  <scstep>
   <time name="dav">   69.89   69.91</time>
   <time name="total">   69.90   69.91</time>
   <energy>
    <i name="e_fr_energy">   -244.23027787 </i>
    <i name="e_wo_entrp">   -244.23027787 </i>
    <i name="e_0_energy">   -244.23027787 </i>
   </energy>
  </scstep>
  <scstep>
   <time name="dav">   72.23   72.25</time>
   <time name="total">   72.23   72.25</time>
   <energy>
    <i name="e_fr_energy">   -329.55939247 </i>
    <i name="e_wo_entrp">   -329.55939247 </i>
    <i name="e_0_energy">   -329.55939247 </i>
   </energy>
  </scstep>
  <scstep>
   <time name="dav">   92.08   92.09</time>
   <time name="total">   92.80   92.81</time>
   <energy>
    <i name="e_fr_energy">   -335.40147267 </i>
    <i name="e_wo_entrp">   -335.40147267 </i>
    <i name="e_0_energy">   -335.40147267 </i>
   </energy>
  </scstep>
  <scstep>
   <time name="dav">   83.89   83.90</time>
   <time name="total">   84.68   84.70</time>
   <energy>
    <i name="e_fr_energy">   -280.20753569 </i>
    <i name="e_wo_entrp">   -280.20753569 </i>
    <i name="e_0_energy">   -280.20753569 </i>
   </energy>
  </scstep>
  <scstep>
   <time name="dav">   64.97   64.97</time>
   <time name="total">   65.75   65.76</time>
   <energy>
    <i name="e_fr_energy">   -281.68816859 </i>
    <i name="e_wo_entrp">   -281.68816859 </i>
    <i name="e_0_energy">   -281.68816859 </i>
   </energy>
  </scstep>
  <scstep>
   <time name="dav">   78.38   78.39</time>
   <time name="total">   79.16   79.18</time>
   <energy>
    <i name="e_fr_energy">   -280.41057960 </i>
    <i name="e_wo_entrp">   -280.41057960 </i>
    <i name="e_0_energy">   -280.41057960 </i>
   </energy>
  </scstep>
  <scstep>
   <time name="dav">   69.34   69.34</time>
   <time name="total">   70.12   70.13</time>
   <energy>
    <i name="e_fr_energy">   -279.70616474 </i>
    <i name="e_wo_entrp">   -279.70616474 </i>
    <i name="e_0_energy">   -279.70616474 </i>
   </energy>
  </scstep>
  <scstep>
   <time name="dav">   77.84   78.14</time>
   <time name="total">   78.62   78.92</time>
   <energy>
    <i name="e_fr_energy">   -279.71696429 </i>
    <i name="e_wo_entrp">   -279.71696429 </i>
    <i name="e_0_energy">   -279.71696429 </i>
   </energy>
  </scstep>
  <scstep>
   <time name="dav">   72.20   72.49</time>
   <time name="total">   72.98   73.28</time>
   <energy>
    <i name="e_fr_energy">   -279.70397654 </i>
    <i name="e_wo_entrp">   -279.70397654 </i>
    <i name="e_0_energy">   -279.70397654 </i>
   </energy>
  </scstep>
  <scstep>
   <time name="dav">   82.01   82.41</time>
   <time name="total">   82.80   83.20</time>
   <energy>
    <i name="e_fr_energy">   -279.70529313 </i>
    <i name="e_wo_entrp">   -279.70529313 </i>
    <i name="e_0_energy">   -279.70529313 </i>
   </energy>
  </scstep>
  <scstep>
   <time name="dav">   73.31   73.65</time>
   <time name="total">   74.10   74.43</time>
   <energy>
    <i name="e_fr_energy">   -279.70799617 </i>
    <i name="e_wo_entrp">   -279.70799617 </i>
    <i name="e_0_energy">   -279.70799617 </i>
   </energy>
  </scstep>
  <scstep>
   <time name="dav">   75.59   75.94</time>
   <time name="total">   76.38   76.72</time>
   <energy>
    <i name="e_fr_energy">   -279.70800173 </i>
    <i name="e_wo_entrp">   -279.70800173 </i>
    <i name="e_0_energy">   -279.70800173 </i>
   </energy>
  </scstep>
  <scstep>
   <time name="dav">   73.08   73.36</time>
   <time name="total">   73.86   74.14</time>
   <energy>
    <i name="e_fr_energy">   -279.70802872 </i>
    <i name="e_wo_entrp">   -279.70802872 </i>
    <i name="e_0_energy">   -279.70802872 </i>
   </energy>
  </scstep>
  <scstep>
   <time name="dav">   69.06   69.30</time>
   <time name="total">   69.84   70.08</time>
   <energy>
    <i name="e_fr_energy">   -279.70805532 </i>
    <i name="e_wo_entrp">   -279.70805532 </i>
    <i name="e_0_energy">   -279.70805532 </i>
   </energy>
  </scstep>
  <scstep>
   <time name="dav">   76.08   76.33</time>
   <time name="total">   76.86   77.11</time>
   <energy>
    <i name="e_fr_energy">   -279.70809033 </i>
    <i name="e_wo_entrp">   -279.70809033 </i>
    <i name="e_0_energy">   -279.70809033 </i>
   </energy>
  </scstep>
  <scstep>
   <time name="dav">   70.62   70.86</time>
   <time name="total">   71.40   71.64</time>
   <energy>
    <i name="e_fr_energy">   -279.70808700 </i>
    <i name="e_wo_entrp">   -279.70808700 </i>
    <i name="e_0_energy">   -279.70808700 </i>
   </energy>
  </scstep>
  <scstep>
   <time name="dav">   59.86   60.05</time>
   <time name="total">   60.64   60.84</time>
   <energy>
    <i name="e_fr_energy">   -279.70808900 </i>
    <i name="e_wo_entrp">   -279.70808900 </i>
    <i name="e_0_energy">   -279.70808900 </i>
   </energy>
  </scstep>
  <scstep>
   <time name="dav">   51.26   51.43</time>
   <time name="total">   52.04   52.21</time>
   <energy>
    <i name="e_fr_energy">   -279.70809021 </i>
    <i name="e_wo_entrp">   -279.70809021 </i>
    <i name="e_0_energy">   -279.70809021 </i>
   </energy>
  </scstep>
  <scstep>
   <time name="dav">   45.86   46.01</time>
   <time name="total">   45.93   46.08</time>
   <energy>
    <i name="alphaZ">   1054.17224280 </i>
    <i name="ewald"> -30192.37602351 </i>
    <i name="hartreedc"> -12916.22036087 </i>
    <i name="XCdc">   1197.86695929 </i>
    <i name="pawpsdc">  43566.67140842 </i>
    <i name="pawaedc"> -42795.48352517 </i>
    <i name="eentropy">      0.00000000 </i>
    <i name="bandstr">  -3837.85674187 </i>
    <i name="atom">  43643.51795008 </i>
    <i name="e_fr_energy">   -279.70809082 </i>
    <i name="e_wo_entrp">   -279.70809082 </i>
    <i name="e_0_energy">   -279.70809082 </i>
   </energy>
  </scstep>
  <structure>
   <crystal>
    <varray name="basis" >
     <v>      11.17850000       0.00000000       0.00000000 </v>
     <v>       0.00000000       9.57460000       0.00000000 </v>
     <v>       0.00000000       0.00000000      11.18240000 </v>
    </varray>
    <i name="volume">   1196.84853820 </i>
    <varray name="rec_basis" >
     <v>       0.08945744       0.00000000       0.00000000 </v>
     <v>       0.00000000       0.10444301       0.00000000 </v>
     <v>       0.00000000       0.00000000       0.08942624 </v>
    </varray>
   </crystal>
   <varray name="positions" >
    <v>       0.37461000       0.00017000       0.18687000 </v>
    <v>       0.62539000       0.99984000       0.43687000 </v>
    <v>       0.12539000       0.99984000       0.93687000 </v>
    <v>       0.37461000       0.00017000       0.68687000 </v>
    <v>       0.87539000       0.00017000       0.43687000 </v>
    <v>       0.87461000       0.00017000       0.18687000 </v>
    <v>       0.12461000       0.99984000       0.68687000 </v>
    <v>       0.62539000       0.99984000       0.93687000 </v>
    <v>       0.87539000       0.00017000       0.93687000 </v>
    <v>       0.87461000       0.00017000       0.68687000 </v>
    <v>       0.00013000       0.29519000       0.06281000 </v>
    <v>       0.25013000       0.70481000       0.06281000 </v>
    <v>       0.24987000       0.29519000       0.31282000 </v>
    <v>       0.49987000       0.70481000       0.31282000 </v>
    <v>       0.50013000       0.29519000       0.06281000 </v>
    <v>       0.75013000       0.70481000       0.06281000 </v>
    <v>       0.74987000       0.29519000       0.31282000 </v>
    <v>       0.99987000       0.70481000       0.31282000 </v>
    <v>       0.00013000       0.29519000       0.56281000 </v>
    <v>       0.25013000       0.70481000       0.56281000 </v>
    <v>       0.24987000       0.29519000       0.81282000 </v>
    <v>       0.49987000       0.70481000       0.81282000 </v>
    <v>       0.50013000       0.29519000       0.56281000 </v>
    <v>       0.75013000       0.70481000       0.56281000 </v>
    <v>       0.74987000       0.29519000       0.81282000 </v>
    <v>       0.99987000       0.70481000       0.81282000 </v>
    <v>       0.25005000       0.32677000       0.06286000 </v>
    <v>       0.00005000       0.67323000       0.06286000 </v>
    <v>       0.49995000       0.32677000       0.31286000 </v>
    <v>       0.24995000       0.67323000       0.31286000 </v>
    <v>       0.75005000       0.32677000       0.06286000 </v>
    <v>       0.50005000       0.67323000       0.06286000 </v>
    <v>       0.99995000       0.32677000       0.31286000 </v>
    <v>       0.74995000       0.67323000       0.31286000 </v>
    <v>       0.25005000       0.32677000       0.56286000 </v>
    <v>       0.00005000       0.67323000       0.56286000 </v>
    <v>       0.49995000       0.32677000       0.81286000 </v>
    <v>       0.24995000       0.67323000       0.81286000 </v>
    <v>       0.75005000       0.32677000       0.56286000 </v>
    <v>       0.50005000       0.67323000       0.56286000 </v>
    <v>       0.99995000       0.32677000       0.81286000 </v>
    <v>       0.74995000       0.67323000       0.81286000 </v>
    <v>       0.49987000       0.07798000       0.06246000 </v>
    <v>       0.24987000       0.92202000       0.06246000 </v>
    <v>       0.25013000       0.07798000       0.31246000 </v>
    <v>       0.00013000       0.92202000       0.31246000 </v>
    <v>       0.99987000       0.07798000       0.06246000 </v>
    <v>       0.74987000       0.92202000       0.06246000 </v>
    <v>       0.75013000       0.07798000       0.31246000 </v>
    <v>       0.50013000       0.92202000       0.31246000 </v>
    <v>       0.49987000       0.07798000       0.56246000 </v>
    <v>       0.24987000       0.92202000       0.56246000 </v>
    <v>       0.25013000       0.07798000       0.81246000 </v>
    <v>       0.00013000       0.92202000       0.81246000 </v>
    <v>       0.99987000       0.07798000       0.56246000 </v>
    <v>       0.74987000       0.92202000       0.56246000 </v>
    <v>       0.75013000       0.07798000       0.81246000 </v>
    <v>       0.50013000       0.92202000       0.81246000 </v>
   </varray>
  </structure>
  <varray name="forces" >
   <v>      -0.17085643      -0.02850071       0.24987113 </v>
   <v>      -1.32215826       0.01297661      -0.06802336 </v>
   <v>       1.36120531       0.01736831       1.03681710 </v>
   <v>       0.72126901      -0.00263656      -0.27377954 </v>
   <v>       0.56079315      -0.21976315      -0.55113855 </v>
   <v>       0.39946223      -0.00278783       0.61006859 </v>
   <v>       2.26088713       0.02279203      -1.08161100 </v>
   <v>      -2.81223148      -0.00741882       0.16183478 </v>
   <v>       0.54347778       0.20425208       0.59936747 </v>
   <v>      -1.60023903      -0.00572182      -0.53203929 </v>
   <v>       1.01703080       1.28539571       0.54979620 </v>
   <v>       0.42010020       1.86678754       0.37845432 </v>
   <v>       0.35402111      -2.60345382       0.06381210 </v>
   <v>      -0.52360335       1.89044636       0.04722023 </v>
   <v>      -0.61996767      -0.97030464       0.39511149 </v>
   <v>      -0.85479565      -2.15634440       0.55723154 </v>
   <v>      -0.92336958       1.24305808      -0.06430089 </v>
   <v>       1.09505871      -0.25792774      -0.07610852 </v>
   <v>       0.82630143       2.20050954      -0.65275142 </v>
   <v>       0.62184109       0.85723229      -0.72307071 </v>
   <v>       0.74819505       0.19193802       0.26325438 </v>
   <v>      -0.51159979       0.92642974      -0.10464566 </v>
   <v>      -0.42993925      -1.88482069      -0.33579219 </v>
   <v>      -1.02706105      -1.23731070      -0.21653465 </v>
   <v>      -0.93501179       2.21296101      -0.28997255 </v>
   <v>       0.73552042      -3.12380425       0.16284631 </v>
   <v>      -0.49454385       0.22700383      -0.46767454 </v>
   <v>      -0.56382239       0.07851722      -0.35842075 </v>
   <v>       0.66876074       0.27836692      -0.10915246 </v>
   <v>      -0.47279453      -0.26659471       0.12623839 </v>
   <v>       0.38060460      -0.11301429      -0.27363540 </v>
   <v>       0.69790068      -0.19549731      -0.29172087 </v>
   <v>      -0.58699140      -0.02990878       0.05496490 </v>
   <v>       0.42389609      -0.04402897      -0.01852622 </v>
   <v>      -0.70605526       0.14876317       0.47812213 </v>
   <v>      -0.36362285       0.12009931       0.39256142 </v>
   <v>       0.49849042       0.15674796       0.14972069 </v>
   <v>      -0.68783657      -0.16208723      -0.14602396 </v>
   <v>       0.58436644      -0.07193282       0.21334521 </v>
   <v>       0.45820928      -0.24426247       0.22083063 </v>
   <v>      -0.34439386      -0.21338657      -0.08671412 </v>
   <v>       0.51194335       0.21302306       0.09649215 </v>
   <v>       1.00466144       0.94302162      -0.74043135 </v>
   <v>      -0.36903246      -1.66745008      -0.33334715 </v>
   <v>       0.25545784       2.30013544      -0.42543315 </v>
   <v>      -2.40865797       0.40768728       0.02653631 </v>
   <v>      -1.93849608      -1.22996841      -0.96874422 </v>
   <v>       1.39507432       1.77022710      -1.30212562 </v>
   <v>       1.78604277      -1.00951333       0.51719581 </v>
   <v>       0.37866837      -1.74234047       0.02852484 </v>
   <v>       0.28338785       1.69293510       0.12219916 </v>
   <v>      -0.92481484      -0.64292484       1.83866919 </v>
   <v>      -1.66472959      -0.21270220      -1.03885809 </v>
   <v>      -0.89873671       2.54914781      -0.52365629 </v>
   <v>      -1.35378793      -1.81315231       1.42658879 </v>
   <v>       2.02723367       1.15904581      -0.32285488 </v>
   <v>       1.61541933      -1.93386676       1.03348060 </v>
   <v>       0.87386900      -0.88344226       0.57593154 </v>
  </varray>
  <varray name="stress" >
   <v>      -2.94540626       0.27621189      -0.14483803 </v>
   <v>       0.27621190     -10.17522767      -0.79598627 </v>
   <v>      -0.14483794      -0.79598640       5.36915836 </v>
  </varray>
  <energy>
   <i name="e_fr_energy">   -291.52293291 </i>
   <i name="e_wo_entrp">   -291.52293291 </i>
   <i name="e_0_energy">      0.00000000 </i>
  </energy>
  <time name="totalsc"> 1611.61 1615.39</time>
 </calculation>
 <calculation>
  <scstep>
   <time name="dav">   69.28   69.31</time>
   <time name="total">   70.06   70.09</time>
   <energy>
    <i name="alphaZ">   1059.29094787 </i>
    <i name="ewald"> -30214.70569753 </i>
    <i name="hartreedc"> -12939.99975206 </i>
    <i name="XCdc">   1201.03930434 </i>
    <i name="pawpsdc">  43566.78331536 </i>
    <i name="pawaedc"> -42795.59567758 </i>
    <i name="eentropy">      0.00000000 </i>
    <i name="bandstr">  -3798.13528402 </i>
    <i name="atom">  43643.51795008 </i>
    <i name="e_fr_energy">   -277.80489354 </i>
    <i name="e_wo_entrp">   -277.80489354 </i>
    <i name="e_0_energy">   -277.80489354 </i>
   </energy>
  </scstep>
  <scstep>
   <time name="dav">   67.28   67.36</time>
   <time name="total">   68.06   68.14</time>
   <energy>
    <i name="e_fr_energy">   -283.65288369 </i>
    <i name="e_wo_entrp">   -283.65288369 </i>
    <i name="e_0_energy">   -283.65288369 </i>
   </energy>
  </scstep>
  <scstep>
   <time name="dav">   83.56   83.69</time>
   <time name="total">   84.34   84.47</time>
   <energy>
    <i name="e_fr_energy">   -283.36535745 </i>
    <i name="e_wo_entrp">   -283.36535745 </i>
    <i name="e_0_energy">   -283.36535745 </i>
   </energy>
  </scstep>
  <scstep>
   <time name="dav">   78.88   78.98</time>
   <time name="total">   79.66   79.76</time>
   <energy>
    <i name="e_fr_energy">   -283.17435646 </i>
    <i name="e_wo_entrp">   -283.17435646 </i>
    <i name="e_0_energy">   -283.17435646 </i>
   </energy>
  </scstep>
  <scstep>
   <time name="dav">   78.01   78.15</time>
   <time name="total">   78.79   78.93</time>
   <energy>
    <i name="e_fr_energy">   -283.10024771 </i>
    <i name="e_wo_entrp">   -283.10024771 </i>
    <i name="e_0_energy">   -283.10024771 </i>
   </energy>
  </scstep>
  <scstep>
   <time name="dav">   73.89   74.03</time>
   <time name="total">   74.67   74.82</time>
   <energy>
    <i name="e_fr_energy">   -283.09871568 </i>
    <i name="e_wo_entrp">   -283.09871568 </i>
    <i name="e_0_energy">   -283.09871568 </i>
   </energy>
  </scstep>
  <scstep>
   <time name="dav">   74.19   74.29</time>
   <time name="total">   74.97   75.07</time>
   <energy>
    <i name="e_fr_energy">   -283.09782525 </i>
    <i name="e_wo_entrp">   -283.09782525 </i>
    <i name="e_0_energy">   -283.09782525 </i>
   </energy>
  </scstep>
  <scstep>
   <time name="dav">   69.99   70.19</time>
   <time name="total">   70.77   70.97</time>
   <energy>
    <i name="e_fr_energy">   -283.09650955 </i>
    <i name="e_wo_entrp">   -283.09650955 </i>
    <i name="e_0_energy">   -283.09650955 </i>
   </energy>
  </scstep>
  <scstep>
   <time name="dav">   89.44   89.58</time>
   <time name="total">   90.22   90.36</time>
   <energy>
    <i name="e_fr_energy">   -283.09641240 </i>
    <i name="e_wo_entrp">   -283.09641240 </i>
    <i name="e_0_energy">   -283.09641240 </i>
   </energy>
  </scstep>
  <scstep>
   <time name="dav">   71.61   71.70</time>
   <time name="total">   72.39   72.48</time>
   <energy>
    <i name="e_fr_energy">   -283.09643378 </i>
    <i name="e_wo_entrp">   -283.09643378 </i>
    <i name="e_0_energy">   -283.09643378 </i>
   </energy>
  </scstep>
  <scstep>
   <time name="dav">   79.74   79.83</time>
   <time name="total">   80.52   80.61</time>
   <energy>
    <i name="e_fr_energy">   -283.09644300 </i>
    <i name="e_wo_entrp">   -283.09644300 </i>
    <i name="e_0_energy">   -283.09644300 </i>
   </energy>
  </scstep>
  <scstep>
   <time name="dav">   76.07   76.12</time>
   <time name="total">   76.85   76.90</time>
   <energy>
    <i name="e_fr_energy">   -283.09644703 </i>
    <i name="e_wo_entrp">   -283.09644703 </i>
    <i name="e_0_energy">   -283.09644703 </i>
   </energy>
  </scstep>
  <scstep>
   <time name="dav">   69.07   69.07</time>
   <time name="total">   69.14   69.15</time>
   <energy>
    <i name="alphaZ">   1059.29094787 </i>
    <i name="ewald"> -30214.70569753 </i>
    <i name="hartreedc"> -12912.25832753 </i>
    <i name="XCdc">   1200.52242525 </i>
    <i name="pawpsdc">  43850.48527993 </i>
    <i name="pawaedc"> -43082.37262847 </i>
    <i name="eentropy">      0.00000000 </i>
    <i name="bandstr">  -3827.57639763 </i>
    <i name="atom">  43643.51795008 </i>
    <i name="e_fr_energy">   -283.09644803 </i>
    <i name="e_wo_entrp">   -283.09644803 </i>
    <i name="e_0_energy">   -283.09644803 </i>
   </energy>
  </scstep>
  <structure>
   <crystal>
    <varray name="basis" >
     <v>      11.15804212       0.00191848      -0.00100600 </v>
     <v>       0.00164322       9.51406639      -0.00473541 </v>
     <v>      -0.00100635      -0.00553060      11.21970552 </v>
    </varray>
    <i name="volume">   1191.06512743 </i>
    <varray name="rec_basis" >
     <v>       0.08962146      -0.00001547       0.00000803 </v>
     <v>      -0.00001807       0.10510756       0.00005181 </v>
     <v>       0.00000803       0.00004436       0.08912892 </v>
    </varray>
   </crystal>
   <varray name="positions" >
    <v>       0.37387264       0.00002640       0.18794798 </v>
    <v>       0.61968401       0.99990538       0.43657654 </v>
    <v>       0.13126451       0.99992751       0.94134299 </v>
    <v>       0.37772275       0.00015672       0.68568887 </v>
    <v>       0.87781020      -0.00093730       0.43449230 </v>
    <v>       0.87633394       0.00015595       0.18950193 </v>
    <v>       0.13436723       0.99995484       0.68220376 </v>
    <v>       0.61325335       0.99980262       0.93756818 </v>
    <v>       0.87773547       0.00119915       0.93945577 </v>
    <v>       0.86770391       0.00014117       0.68457470 </v>
    <v>       0.00451916       0.30166660       0.06518191 </v>
    <v>       0.25194301       0.71421601       0.06444271 </v>
    <v>       0.25139784       0.28207222       0.31309530 </v>
    <v>       0.49761030       0.71433522       0.31302372 </v>
    <v>       0.49745443       0.29030102       0.06451457 </v>
    <v>       0.74644099       0.69394503       0.06521399 </v>
    <v>       0.74588505       0.30145328       0.31254260 </v>
    <v>       0.00459591       0.70351040       0.31249166 </v>
    <v>       0.00369604       0.30627750       0.55999393 </v>
    <v>       0.25281366       0.70912926       0.55969056 </v>
    <v>       0.25309896       0.29615710       0.81395572 </v>
    <v>       0.49766211       0.70947792       0.81236854 </v>
    <v>       0.49827453       0.28569313       0.56136134 </v>
    <v>       0.74569755       0.69857568       0.56187584 </v>
    <v>       0.74583480       0.30634024       0.81156901 </v>
    <v>       0.00304426       0.68907038       0.81352254 </v>
    <v>       0.24791571       0.32791378       0.06084238 </v>
    <v>      -0.00238327       0.67362562       0.06131372 </v>
    <v>       0.50283615       0.32817258       0.31238910 </v>
    <v>       0.24790958       0.67188673       0.31340461 </v>
    <v>       0.75169256       0.32620057       0.06167949 </v>
    <v>       0.50306191       0.67224497       0.06160147 </v>
    <v>       0.99741674       0.32661930       0.31309713 </v>
    <v>       0.75177939       0.67300816       0.31278007 </v>
    <v>       0.24700290       0.32751956       0.56492270 </v>
    <v>      -0.00151927       0.67383513       0.56455357 </v>
    <v>       0.50210132       0.32755979       0.81350592 </v>
    <v>       0.24698153       0.67241331       0.81223003 </v>
    <v>       0.75257193       0.32640756       0.56378041 </v>
    <v>       0.50202748       0.67199926       0.56381270 </v>
    <v>       0.99846371       0.32569483       0.81248590 </v>
    <v>       0.75215938       0.67430334       0.81327628 </v>
    <v>       0.50420578       0.08273152       0.05926566 </v>
    <v>       0.24827738       0.91361837       0.06102189 </v>
    <v>       0.25123247       0.08956948       0.31062461 </v>
    <v>      -0.01026496       0.92407418       0.31257448 </v>
    <v>       0.99150410       0.07178267       0.05828068 </v>
    <v>       0.75589067       0.93093948       0.05684242 </v>
    <v>       0.75783796       0.07289346       0.31469127 </v>
    <v>       0.50176421       0.91324103       0.31258306 </v>
    <v>       0.50109301       0.08651004       0.56298719 </v>
    <v>       0.24587881       0.91878055       0.57039231 </v>
    <v>       0.24294559       0.07690828       0.80797820 </v>
    <v>      -0.00374865       0.93486416       0.81020086 </v>
    <v>       0.99402751       0.06884424       0.56861453 </v>
    <v>       0.75861886       0.92785998       0.56106715 </v>
    <v>       0.75710161       0.06823600       0.81691860 </v>
    <v>       0.50390133       0.91756868       0.81494466 </v>
   </varray>
  </structure>
  <varray name="forces" >
   <v>      -0.13886919      -0.00563819       0.21239834 </v>
   <v>      -0.65327236       0.01098526      -0.05649873 </v>
   <v>       0.64979654       0.03349347       0.49969348 </v>
   <v>       0.59527816      -0.00701146      -0.12830744 </v>
   <v>       0.43773417       0.00233956       0.34772117 </v>
   <v>      -0.06031309       0.03152700      -0.24427890 </v>
   <v>      -0.40131759       0.22925925      -0.22313257 </v>
   <v>      -0.43060724      -0.02601770       0.05284143 </v>
   <v>       0.13467216      -0.04317427      -0.36878665 </v>
   <v>      -0.47971594       0.05980170       0.42107188 </v>
   <v>       0.34956683      -0.28869078       0.13681435 </v>
   <v>       0.12205007      -2.34094011       0.14267329 </v>
   <v>       0.03831714       3.89874348       0.19960561 </v>
   <v>      -0.17942026      -2.48142620       0.01401289 </v>
   <v>      -0.16544163       1.12598886       0.25154655 </v>
   <v>      -0.33007981       0.21671914       0.17666165 </v>
   <v>      -0.40112032      -0.16740094      -0.08549676 </v>
   <v>       0.50453825       0.17338029      -0.02045651 </v>
   <v>       0.31986242      -0.18012012      -0.14529438 </v>
   <v>       0.18169210      -0.68824586      -0.44465501 </v>
   <v>       0.13474445       0.02796927       0.11580265 </v>
   <v>      -0.16845201      -1.06158430      -0.04683220 </v>
   <v>      -0.16183961       2.42221564      -0.20827842 </v>
   <v>      -0.34337039       0.24894888      -0.04043922 </v>
   <v>      -0.23100771      -0.24615447      -0.07877404 </v>
   <v>       0.24546915       0.02931101       0.01267775 </v>
   <v>      -0.27861286       0.10624842      -0.29073048 </v>
   <v>      -0.20907022      -0.12567648      -0.11876200 </v>
   <v>       0.42009309       0.14848891      -0.07989488 </v>
   <v>      -0.27146993      -0.09812113       0.09448632 </v>
   <v>       0.11159860       0.18663654      -0.11429661 </v>
   <v>       0.40140377      -0.10284586      -0.19245451 </v>
   <v>      -0.27846768       0.07667289      -0.00032697 </v>
   <v>       0.17311315      -0.19893240       0.02132205 </v>
   <v>      -0.39785419       0.10919801       0.34013222 </v>
   <v>      -0.09199282      -0.18053256       0.12222048 </v>
   <v>       0.26931265       0.06731971       0.11304683 </v>
   <v>      -0.34225766      -0.18272836      -0.10652630 </v>
   <v>       0.21674576       0.11845241       0.09003012 </v>
   <v>       0.23075404      -0.09671451       0.12175553 </v>
   <v>      -0.08299028       0.26868591      -0.01098557 </v>
   <v>       0.13621127      -0.14368743       0.01131573 </v>
   <v>       0.23125791      -0.92108740      -0.22859731 </v>
   <v>      -0.08840810       2.50299482      -0.12925666 </v>
   <v>       0.43155085      -4.30254947      -0.56267331 </v>
   <v>      -1.09102924      -0.50446668      -0.09500672 </v>
   <v>      -0.56002854       0.78316808      -0.08708392 </v>
   <v>       0.37569728      -0.77242876      -0.52307556 </v>
   <v>       0.79549845       0.62893281       0.37273856 </v>
   <v>       0.16292185       2.64204572      -0.00671290 </v>
   <v>       0.10609336      -2.59981664       0.08668946 </v>
   <v>       0.13018116       0.44167843       0.90491643 </v>
   <v>      -0.56141779       0.19335860      -0.57610385 </v>
   <v>      -0.09247461      -0.73802814      -0.39274485 </v>
   <v>      -0.48423442       0.75521003       0.57892738 </v>
   <v>       0.61389940      -0.74707027      -0.72196540 </v>
   <v>       0.23650661       0.82945396       0.71697654 </v>
   <v>       0.21857488       0.88186241       0.17034991 </v>
  </varray>
  <varray name="stress" >
   <v>      10.97762104      -0.59693254       0.02258653 </v>
   <v>      -0.59693235      19.01332613       2.32915149 </v>
   <v>       0.02258663       2.32915175       7.02943359 </v>
  </varray>
  <energy>
   <i name="e_fr_energy">   -294.93805170 </i>
   <i name="e_wo_entrp">   -294.93805170 </i>
   <i name="e_0_energy">      0.00000000 </i>
  </energy>
  <time name="totalsc"> 1098.69 1100.06</time>
 </calculation>
 <calculation>
  <scstep>
   <time name="dav">   66.42   66.45</time>
   <time name="total">   67.20   67.23</time>
   <energy>
    <i name="alphaZ">   1058.43349959 </i>
    <i name="ewald"> -30220.34228542 </i>
    <i name="hartreedc"> -12900.36549710 </i>
    <i name="XCdc">   1199.86512806 </i>
    <i name="pawpsdc">  43850.55528064 </i>
    <i name="pawaedc"> -43082.44214842 </i>
    <i name="eentropy">      0.00000000 </i>
    <i name="bandstr">  -3832.32275861 </i>
    <i name="atom">  43643.51795008 </i>
    <i name="e_fr_energy">   -283.10083118 </i>
    <i name="e_wo_entrp">   -283.10083118 </i>
    <i name="e_0_energy">   -283.10083118 </i>
   </energy>
  </scstep>
  <scstep>
   <time name="dav">   71.33   71.37</time>
   <time name="total">   72.11   72.16</time>
   <energy>
    <i name="e_fr_energy">   -283.27486645 </i>
    <i name="e_wo_entrp">   -283.27486645 </i>
    <i name="e_0_energy">   -283.27486645 </i>
   </energy>
  </scstep>
  <scstep>
   <time name="dav">   75.18   75.20</time>
   <time name="total">   75.96   75.98</time>
   <energy>
    <i name="e_fr_energy">   -283.26701927 </i>
    <i name="e_wo_entrp">   -283.26701927 </i>
    <i name="e_0_energy">   -283.26701927 </i>
   </energy>
  </scstep>
  <scstep>
   <time name="dav">   68.73   68.75</time>
   <time name="total">   69.52   69.54</time>
   <energy>
    <i name="e_fr_energy">   -283.25902694 </i>
    <i name="e_wo_entrp">   -283.25902694 </i>
    <i name="e_0_energy">   -283.25902694 </i>
   </energy>
  </scstep>
  <scstep>
   <time name="dav">   75.78   75.79</time>
   <time name="total">   76.55   76.57</time>
   <energy>
    <i name="e_fr_energy">   -283.25713689 </i>
    <i name="e_wo_entrp">   -283.25713689 </i>
    <i name="e_0_energy">   -283.25713689 </i>
   </energy>
  </scstep>
  <scstep>
   <time name="dav">   72.54   72.57</time>
   <time name="total">   73.33   73.35</time>
   <energy>
    <i name="e_fr_energy">   -283.25708952 </i>
    <i name="e_wo_entrp">   -283.25708952 </i>
    <i name="e_0_energy">   -283.25708952 </i>
   </energy>
  </scstep>
  <scstep>
   <time name="dav">   79.71   79.90</time>
   <time name="total">   80.49   80.69</time>
   <energy>
    <i name="e_fr_energy">   -283.25705865 </i>
    <i name="e_wo_entrp">   -283.25705865 </i>
    <i name="e_0_energy">   -283.25705865 </i>
   </energy>
  </scstep>
  <scstep>
   <time name="dav">   66.12   66.40</time>
   <time name="total">   66.90   67.19</time>
   <energy>
    <i name="e_fr_energy">   -283.25703717 </i>
    <i name="e_wo_entrp">   -283.25703717 </i>
    <i name="e_0_energy">   -283.25703717 </i>
   </energy>
  </scstep>
  <scstep>
   <time name="dav">   79.50   79.89</time>
   <time name="total">   80.27   80.68</time>
   <energy>
    <i name="e_fr_energy">   -283.25704022 </i>
    <i name="e_wo_entrp">   -283.25704022 </i>
    <i name="e_0_energy">   -283.25704022 </i>
   </energy>
  </scstep>
  <scstep>
   <time name="dav">   63.86   64.15</time>
   <time name="total">   64.64   64.93</time>
   <energy>
    <i name="e_fr_energy">   -283.25704213 </i>
    <i name="e_wo_entrp">   -283.25704213 </i>
    <i name="e_0_energy">   -283.25704213 </i>
   </energy>
  </scstep>
  <scstep>
   <time name="dav">   57.68   57.74</time>
   <time name="total">   57.75   57.81</time>
   <energy>
    <i name="alphaZ">   1058.43349959 </i>
    <i name="ewald"> -30220.34228542 </i>
    <i name="hartreedc"> -12905.47671279 </i>
    <i name="XCdc">   1199.98645514 </i>
    <i name="pawpsdc">  43768.67211030 </i>
    <i name="pawaedc"> -42999.47972928 </i>
    <i name="eentropy">      0.00000000 </i>
    <i name="bandstr">  -3828.56833046 </i>
    <i name="atom">  43643.51795008 </i>
    <i name="e_fr_energy">   -283.25704283 </i>
    <i name="e_wo_entrp">   -283.25704283 </i>
    <i name="e_0_energy">   -283.25704283 </i>
   </energy>
  </scstep>
  <structure>
   <crystal>
    <varray name="basis" >
     <v>      11.16144598       0.00159928      -0.00083862 </v>
     <v>       0.00136981       9.52413820      -0.00394752 </v>
     <v>      -0.00083891      -0.00461040      11.21349848 </v>
    </varray>
    <i name="volume">   1192.03002201 </i>
    <varray name="rec_basis" >
     <v>       0.08959413      -0.00001288       0.00000670 </v>
     <v>      -0.00001504       0.10499640       0.00004317 </v>
     <v>       0.00000670       0.00003696       0.08917825 </v>
    </varray>
   </crystal>
   <varray name="positions" >
    <v>       0.37399553       0.00005031       0.18776924 </v>
    <v>       0.62063514       0.99989427       0.43662528 </v>
    <v>       0.13028523       0.99991263       0.94060114 </v>
    <v>       0.37720391       0.00015916       0.68588469 </v>
    <v>       0.87740678      -0.00075158       0.43488664 </v>
    <v>       0.87604654       0.00015811       0.18906545 </v>
    <v>       0.13274088       0.99993639       0.68297741 </v>
    <v>       0.61527638       0.99980840       0.93745259 </v>
    <v>       0.87734449       0.00102665       0.93902686 </v>
    <v>       0.86885511       0.00014599       0.68495543 </v>
    <v>       0.00378766       0.30058207       0.06478805 </v>
    <v>       0.25164101       0.71264095       0.06417127 </v>
    <v>       0.25114284       0.28426872       0.31305055 </v>
    <v>       0.49798720       0.71274020       0.31298929 </v>
    <v>       0.49790027       0.29111938       0.06423229 </v>
    <v>       0.74705560       0.69576393       0.06481615 </v>
    <v>       0.74654945       0.30040444       0.31258821 </v>
    <v>       0.00380812       0.70372820       0.31254613 </v>
    <v>       0.00310194       0.30442138       0.56046008 </v>
    <v>       0.25236647       0.70840642       0.56020751 </v>
    <v>       0.25256073       0.29599517       0.81376727 </v>
    <v>       0.49803026       0.70869628       0.81244311 </v>
    <v>       0.49858360       0.28728338       0.56160227 </v>
    <v>       0.74643625       0.69961951       0.56203125 </v>
    <v>       0.74650772       0.30447320       0.81177574 </v>
    <v>       0.00251475       0.69170590       0.81340711 </v>
    <v>       0.24827153       0.32772239       0.06117691 </v>
    <v>      -0.00197764       0.67355944       0.06157015 </v>
    <v>       0.50235510       0.32793787       0.31246705 </v>
    <v>       0.24824965       0.67211153       0.31331442 </v>
    <v>       0.75141877       0.32629608       0.06187527 </v>
    <v>       0.50255985       0.67241012       0.06181020 </v>
    <v>       0.99783900       0.32664443       0.31305785 </v>
    <v>       0.75147445       0.67304537       0.31279332 </v>
    <v>       0.24751081       0.32739375       0.56458063 </v>
    <v>      -0.00125770       0.67373359       0.56427271 </v>
    <v>       0.50174273       0.32742756       0.81339872 </v>
    <v>       0.24747633       0.67255002       0.81233460 </v>
    <v>       0.75215153       0.32646824       0.56362776 </v>
    <v>       0.50169781       0.67220531       0.56365477 </v>
    <v>       0.99871144       0.32587484       0.81254804 </v>
    <v>       0.75179112       0.67412365       0.81320714 </v>
    <v>       0.50348322       0.08193636       0.05979498 </v>
    <v>       0.24854267       0.91502525       0.06126099 </v>
    <v>       0.25104901       0.08762912       0.31092814 </v>
    <v>      -0.00853219       0.92372986       0.31255551 </v>
    <v>       0.99289851       0.07282049       0.05897430 </v>
    <v>       0.75488740       0.92944672       0.05777327 </v>
    <v>       0.75655297       0.07374521       0.31432150 </v>
    <v>       0.50149158       0.91471104       0.31256325 </v>
    <v>       0.50088935       0.08508174       0.56289914 </v>
    <v>       0.24654390       0.91932208       0.56907718 </v>
    <v>       0.24414319       0.07708792       0.80872160 </v>
    <v>      -0.00310177       0.93271359       0.81057465 </v>
    <v>       0.99500107       0.07037316       0.56759465 </v>
    <v>       0.75716069       0.92688255       0.56129759 </v>
    <v>       0.75593921       0.06986737       0.81617981 </v>
    <v>       0.50327254       0.91831391       0.81453289 </v>
   </varray>
  </structure>
  <varray name="forces" >
   <v>      -0.14636943      -0.00755040       0.22115488 </v>
   <v>      -0.76558783       0.01026753      -0.05798018 </v>
   <v>       0.76840228       0.02394383       0.58861140 </v>
   <v>       0.61672415      -0.00492434      -0.15409097 </v>
   <v>       0.46410296      -0.04325504       0.16997792 </v>
   <v>       0.02817838       0.01778711      -0.08268010 </v>
   <v>       0.09131889       0.15810328      -0.38929972 </v>
   <v>      -0.83582951      -0.01703525       0.07416491 </v>
   <v>       0.20609149       0.01090555      -0.16604746 </v>
   <v>      -0.67299207       0.03706613       0.23476974 </v>
   <v>       0.47702996      -0.08525743       0.20653533 </v>
   <v>       0.15883206      -1.34399485       0.17026416 </v>
   <v>       0.09397103       2.16248711       0.15451327 </v>
   <v>      -0.22150686      -1.43306112       0.01843454 </v>
   <v>      -0.23261392       0.70096871       0.27049754 </v>
   <v>      -0.43136274      -0.05943260       0.24224015 </v>
   <v>      -0.50483663       0.02311197      -0.08364528 </v>
   <v>       0.61828285       0.10277283      -0.02916282 </v>
   <v>       0.41844363       0.09269142      -0.23044274 </v>
   <v>       0.24979074      -0.39399791      -0.48367050 </v>
   <v>       0.23712058       0.05620314       0.14437227 </v>
   <v>      -0.21610097      -0.66090788      -0.05221276 </v>
   <v>      -0.19651103       1.39710734      -0.22509975 </v>
   <v>      -0.47127370       0.05308064      -0.06942044 </v>
   <v>      -0.35873508       0.03116363      -0.11485864 </v>
   <v>       0.33460032      -0.28270716       0.03586507 </v>
   <v>      -0.32433184       0.13072037      -0.32516439 </v>
   <v>      -0.27036704      -0.09567678      -0.16035267 </v>
   <v>       0.47921195       0.17661353      -0.08501153 </v>
   <v>      -0.31556692      -0.13074461       0.10213556 </v>
   <v>       0.15696289       0.14071574      -0.14288550 </v>
   <v>       0.46381325      -0.12257622      -0.20936599 </v>
   <v>      -0.33522655       0.06297034       0.01032678 </v>
   <v>       0.21663954      -0.17535357       0.01374133 </v>
   <v>      -0.46215666       0.12059973       0.36700723 </v>
   <v>      -0.13820727      -0.13428633       0.16837009 </v>
   <v>       0.31790215       0.08426463       0.11865401 </v>
   <v>      -0.41087420      -0.18158711      -0.11335623 </v>
   <v>       0.27971302       0.09062138       0.11021774 </v>
   <v>       0.27722278      -0.12485785       0.14017420 </v>
   <v>      -0.12735642       0.19644089      -0.02413919 </v>
   <v>       0.19992469      -0.09054600       0.02698456 </v>
   <v>       0.36608931      -0.55448821      -0.32729040 </v>
   <v>      -0.11987892       1.52222665      -0.15109081 </v>
   <v>       0.40087462      -2.56163899      -0.52008532 </v>
   <v>      -1.35387088      -0.32888191      -0.06877008 </v>
   <v>      -0.84275874       0.48115604      -0.27929769 </v>
   <v>       0.57625325      -0.44915094      -0.68410036 </v>
   <v>       0.98663335       0.38751871       0.40536191 </v>
   <v>       0.18389183       1.60066669      -0.00159290 </v>
   <v>       0.12364215      -1.58692052       0.08710200 </v>
   <v>      -0.09314517       0.26567684       1.10487902 </v>
   <v>      -0.76512594       0.11213616      -0.67909034 </v>
   <v>      -0.23380776      -0.38198563      -0.41970635 </v>
   <v>      -0.65500217       0.44041967       0.73885057 </v>
   <v>       0.89047685      -0.45786400      -0.62980579 </v>
   <v>       0.48932660       0.48653896       0.78614810 </v>
   <v>       0.32992869       0.53173611       0.24836261 </v>
  </varray>
  <varray name="stress" >
   <v>       8.00651047      -0.36966825       0.02805994 </v>
   <v>      -0.36966815       8.82495205       1.58316720 </v>
   <v>       0.02805984       1.58316699       6.06984613 </v>
  </varray>
  <energy>
   <i name="e_fr_energy">   -295.09249247 </i>
   <i name="e_wo_entrp">   -295.09249247 </i>
   <i name="e_0_energy">      0.00000000 </i>
  </energy>
  <time name="totalsc">  892.81  894.32</time>
 </calculation>
 <calculation>
  <scstep>
   <time name="dav">   68.87   68.99</time>
   <time name="total">   69.65   69.77</time>
   <energy>
    <i name="alphaZ">   1045.41214354 </i>
    <i name="ewald"> -30216.39615252 </i>
    <i name="hartreedc"> -12739.18677790 </i>
    <i name="XCdc">   1192.36502087 </i>
    <i name="pawpsdc">  43769.09340267 </i>
    <i name="pawaedc"> -42999.90177554 </i>
    <i name="eentropy">      0.00000000 </i>
    <i name="bandstr">  -3977.69431537 </i>
    <i name="atom">  43643.51795008 </i>
    <i name="e_fr_energy">   -282.79050418 </i>
    <i name="e_wo_entrp">   -282.79050418 </i>
    <i name="e_0_energy">   -282.79050418 </i>
   </energy>
  </scstep>
  <scstep>
   <time name="dav">   68.25   68.43</time>
   <time name="total">   69.03   69.21</time>
   <energy>
    <i name="e_fr_energy">   -284.36680718 </i>
    <i name="e_wo_entrp">   -284.36680718 </i>
    <i name="e_0_energy">   -284.36680718 </i>
   </energy>
  </scstep>
  <scstep>
   <time name="dav">   76.26   76.40</time>
   <time name="total">   77.03   77.18</time>
   <energy>
    <i name="e_fr_energy">   -284.28122211 </i>
    <i name="e_wo_entrp">   -284.28122211 </i>
    <i name="e_0_energy">   -284.28122211 </i>
   </energy>
  </scstep>
  <scstep>
   <time name="dav">   80.55   80.76</time>
   <time name="total">   81.32   81.54</time>
   <energy>
    <i name="e_fr_energy">   -284.24540060 </i>
    <i name="e_wo_entrp">   -284.24540060 </i>
    <i name="e_0_energy">   -284.24540060 </i>
   </energy>
  </scstep>
  <scstep>
   <time name="dav">   78.41   78.71</time>
   <time name="total">   79.19   79.50</time>
   <energy>
    <i name="e_fr_energy">   -284.22525735 </i>
    <i name="e_wo_entrp">   -284.22525735 </i>
    <i name="e_0_energy">   -284.22525735 </i>
   </energy>
  </scstep>
  <scstep>
   <time name="dav">   74.38   74.65</time>
   <time name="total">   75.16   75.43</time>
   <energy>
    <i name="e_fr_energy">   -284.21978297 </i>
    <i name="e_wo_entrp">   -284.21978297 </i>
    <i name="e_0_energy">   -284.21978297 </i>
   </energy>
  </scstep>
  <scstep>
   <time name="dav">   73.95   74.35</time>
   <time name="total">   74.73   75.14</time>
   <energy>
    <i name="e_fr_energy">   -284.21981541 </i>
    <i name="e_wo_entrp">   -284.21981541 </i>
    <i name="e_0_energy">   -284.21981541 </i>
   </energy>
  </scstep>
  <scstep>
   <time name="dav">   76.90   77.24</time>
   <time name="total">   77.68   78.03</time>
   <energy>
    <i name="e_fr_energy">   -284.21959886 </i>
    <i name="e_wo_entrp">   -284.21959886 </i>
    <i name="e_0_energy">   -284.21959886 </i>
   </energy>
  </scstep>
  <scstep>
   <time name="dav">   79.70   80.19</time>
   <time name="total">   80.48   80.97</time>
   <energy>
    <i name="e_fr_energy">   -284.21953364 </i>
    <i name="e_wo_entrp">   -284.21953364 </i>
    <i name="e_0_energy">   -284.21953364 </i>
   </energy>
  </scstep>
  <scstep>
   <time name="dav">   78.85   78.95</time>
   <time name="total">   79.63   79.74</time>
   <energy>
    <i name="e_fr_energy">   -284.21951716 </i>
    <i name="e_wo_entrp">   -284.21951716 </i>
    <i name="e_0_energy">   -284.21951716 </i>
   </energy>
  </scstep>
  <scstep>
   <time name="dav">   66.03   66.16</time>
   <time name="total">   66.81   66.94</time>
   <energy>
    <i name="e_fr_energy">   -284.21952258 </i>
    <i name="e_wo_entrp">   -284.21952258 </i>
    <i name="e_0_energy">   -284.21952258 </i>
   </energy>
  </scstep>
  <scstep>
   <time name="dav">   68.69   68.86</time>
   <time name="total">   69.47   69.64</time>
   <energy>
    <i name="e_fr_energy">   -284.21952575 </i>
    <i name="e_wo_entrp">   -284.21952575 </i>
    <i name="e_0_energy">   -284.21952575 </i>
   </energy>
  </scstep>
  <scstep>
   <time name="dav">   59.99   60.13</time>
   <time name="total">   60.77   60.92</time>
   <energy>
    <i name="e_fr_energy">   -284.21952809 </i>
    <i name="e_wo_entrp">   -284.21952809 </i>
    <i name="e_0_energy">   -284.21952809 </i>
   </energy>
  </scstep>
  <scstep>
   <time name="dav">   49.82   49.95</time>
   <time name="total">   49.89   50.03</time>
   <energy>
    <i name="alphaZ">   1045.41214354 </i>
    <i name="ewald"> -30216.39615252 </i>
    <i name="hartreedc"> -12849.26634569 </i>
    <i name="XCdc">   1197.45562690 </i>
    <i name="pawpsdc">  43352.84311916 </i>
    <i name="pawaedc"> -42577.99950651 </i>
    <i name="eentropy">      0.00000000 </i>
    <i name="bandstr">  -3879.78636346 </i>
    <i name="atom">  43643.51795008 </i>
    <i name="e_fr_energy">   -284.21952850 </i>
    <i name="e_wo_entrp">   -284.21952850 </i>
    <i name="e_0_energy">   -284.21952850 </i>
   </energy>
  </scstep>
  <structure>
   <crystal>
    <varray name="basis" >
     <v>      11.20941384      -0.00034887      -0.00092391 </v>
     <v>      -0.00029094       9.55822236       0.00378825 </v>
     <v>      -0.00092489       0.00450222      11.26427564 </v>
    </varray>
    <i name="volume">   1206.87760860 </i>
    <varray name="rec_basis" >
     <v>       0.08921073       0.00000271       0.00000732 </v>
     <v>       0.00000325       0.10462198      -0.00004182 </v>
     <v>       0.00000732      -0.00003518       0.08877625 </v>
    </varray>
   </crystal>
   <varray name="positions" >
    <v>       0.37318541      -0.00002477       0.18897807 </v>
    <v>       0.61589913       0.99996287       0.43630510 </v>
    <v>       0.13507861       0.00005449       0.94424932 </v>
    <v>       0.38061926       0.00013042       0.68492728 </v>
    <v>       0.87999800      -0.00126319       0.43495587 </v>
    <v>       0.87662868       0.00024149       0.18942758 </v>
    <v>       0.13575044       0.00073974       0.68010726 </v>
    <v>       0.60851473       0.99971625       0.93794776 </v>
    <v>       0.87883739       0.00135807       0.93903003 </v>
    <v>       0.86418277       0.00032065       0.68531593 </v>
    <v>       0.00696316       0.30191594       0.06628392 </v>
    <v>       0.25279363       0.70860334       0.06531598 </v>
    <v>       0.25194623       0.29131124       0.31376955 </v>
    <v>       0.49645351       0.70829864       0.31311892 </v>
    <v>       0.49620745       0.29323100       0.06581510 </v>
    <v>       0.74426000       0.69253646       0.06646707 </v>
    <v>       0.74336635       0.30221143       0.31216633 </v>
    <v>       0.00766456       0.70387932       0.31233711 </v>
    <v>       0.00581040       0.30787186       0.55874777 </v>
    <v>       0.25413298       0.70764330       0.55735910 </v>
    <v>       0.25442131       0.29653199       0.81467266 </v>
    <v>       0.49653277       0.70672220       0.81210406 </v>
    <v>       0.49726206       0.29155645       0.56027893 </v>
    <v>       0.74327323       0.69819404       0.56149124 </v>
    <v>       0.74392136       0.30764069       0.81096343 </v>
    <v>       0.00476862       0.68606559       0.81374289 </v>
    <v>       0.24634117       0.32867116       0.05928358 </v>
    <v>      -0.00376283       0.67319768       0.06048824 </v>
    <v>       0.50513470       0.32918124       0.31198782 </v>
    <v>       0.24638162       0.67110870       0.31388479 </v>
    <v>       0.75251695       0.32683054       0.06096465 </v>
    <v>       0.50530919       0.67154252       0.06060178 </v>
    <v>       0.99575587       0.32691243       0.31316434 </v>
    <v>       0.75287256       0.67212651       0.31282881 </v>
    <v>       0.24475898       0.32818843       0.56666034 </v>
    <v>      -0.00225776       0.67324037       0.56542695 </v>
    <v>       0.50365053       0.32805373       0.81406581 </v>
    <v>       0.24495999       0.67144012       0.81169360 </v>
    <v>       0.75399963       0.32681403       0.56433329 </v>
    <v>       0.50338902       0.67126126       0.56449308 </v>
    <v>       0.99777883       0.32654612       0.81234747 </v>
    <v>       0.75322166       0.67397035       0.81343108 </v>
    <v>       0.50618084       0.08050438       0.05757670 </v>
[...]
       <r>    8.4495    0.0000 </r>
       <r>    8.4651    0.0000 </r>
       <r>    8.4951    0.0000 </r>
       <r>    8.5371    0.0000 </r>
       <r>    8.6653    0.0000 </r>
       <r>    8.9280    0.0000 </r>
       <r>    9.1780    0.0000 </r>
       <r>    9.5948    0.0000 </r>
       <r>    9.7616    0.0000 </r>
       <r>    9.9212    0.0000 </r>
       <r>   10.0889    0.0000 </r>
      </set>
     </set>
    </set>
   </array>
  </eigenvalues>
  <separator name="orbital magnetization" >
   <v name="MAGDIPOLOUT">      0.00000000      0.00000000      0.00000000</v>
  </separator>
  <dos>
   <i name="efermi">      3.99963984 </i>
   <total>
    <array>
     <dimension dim="1">gridpoints</dimension>
     <dimension dim="2">spin</dimension>
     <field>energy</field>
     <field>total</field>
     <field>integrated</field>
     <set>
      <set comment="spin 1">
       <r>   -42.5707     0.0000     0.0000 </r>
       <r>   -42.3868     0.0000     0.0000 </r>
       <r>   -42.2029     0.0000     0.0000 </r>
       <r>   -42.0190     0.0000     0.0000 </r>
       <r>   -41.8351     0.0000     0.0000 </r>
       <r>   -41.6512     0.0000     0.0000 </r>
       <r>   -41.4673     0.0000     0.0000 </r>
       <r>   -41.2834     0.0000     0.0000 </r>
       <r>   -41.0995     0.0000     0.0000 </r>
       <r>   -40.9156     0.0000     0.0000 </r>
       <r>   -40.7317     0.0000     0.0000 </r>
       <r>   -40.5479     0.0000     0.0000 </r>
       <r>   -40.3640     0.0000     0.0000 </r>
       <r>   -40.1801     0.0000     0.0000 </r>
       <r>   -39.9962     0.0000     2.0000 </r>
       <r>   -39.8123     0.0000     4.0000 </r>
       <r>   -39.6284     0.0000     4.0000 </r>
       <r>   -39.4445     0.0000     4.0000 </r>
       <r>   -39.2606     0.0000     4.0000 </r>
       <r>   -39.0767     0.0000     6.0000 </r>
       <r>   -38.8928     0.0000     6.0000 </r>
       <r>   -38.7090     0.0000     6.0000 </r>
       <r>   -38.5251     0.0000     8.0000 </r>
       <r>   -38.3412     0.0000     8.0000 </r>
       <r>   -38.1573     0.0000     8.0000 </r>
       <r>   -37.9734     0.0000     8.0000 </r>
       <r>   -37.7895     0.0000     8.0000 </r>
       <r>   -37.6056     0.0000     8.0000 </r>
       <r>   -37.4217     0.0000     8.0000 </r>
       <r>   -37.2378     0.0000     8.0000 </r>
       <r>   -37.0539     0.0000     8.0000 </r>
       <r>   -36.8700     0.0000     8.0000 </r>
       <r>   -36.6862     0.0000     8.0000 </r>
       <r>   -36.5023     0.0000     8.0000 </r>
       <r>   -36.3184     0.0000     8.0000 </r>
       <r>   -36.1345     0.0000     8.0000 </r>
       <r>   -35.9506     0.0000     8.0000 </r>
       <r>   -35.7667     0.0000     8.0000 </r>
       <r>   -35.5828     0.0000     8.0000 </r>
       <r>   -35.3989     0.0000     8.0000 </r>
       <r>   -35.2150     0.0000     8.0000 </r>
       <r>   -35.0311     0.0000     8.0000 </r>
       <r>   -34.8472     0.0000     8.0000 </r>
       <r>   -34.6634     0.0000     8.0000 </r>
       <r>   -34.4795     0.0000     8.0000 </r>
       <r>   -34.2956     0.0000     8.0000 </r>
       <r>   -34.1117     0.0000     8.0000 </r>
       <r>   -33.9278     0.0000     8.0000 </r>
       <r>   -33.7439     0.0000     8.0000 </r>
       <r>   -33.5600     0.0000     8.0000 </r>
       <r>   -33.3761     0.0000     8.0000 </r>
       <r>   -33.1922     0.0000     8.0000 </r>
       <r>   -33.0083     0.0000     8.0000 </r>
       <r>   -32.8245     0.0000     8.0000 </r>
       <r>   -32.6406     0.0000     8.0000 </r>
       <r>   -32.4567     0.0000     8.0000 </r>
       <r>   -32.2728     0.0000     8.0000 </r>
       <r>   -32.0889     0.0000     8.0000 </r>
       <r>   -31.9050     0.0000     8.0000 </r>
       <r>   -31.7211     0.0000     8.0000 </r>
       <r>   -31.5372     0.0000     8.0000 </r>
       <r>   -31.3533     0.0000     8.0000 </r>
       <r>   -31.1694     0.0000     8.0000 </r>
       <r>   -30.9855     0.0000     8.0000 </r>
       <r>   -30.8017     0.0000     8.0000 </r>
       <r>   -30.6178     0.0000     8.0000 </r>
       <r>   -30.4339     0.0000     8.0000 </r>
       <r>   -30.2500     0.0000     8.0000 </r>
       <r>   -30.0661     0.0000     8.0000 </r>
       <r>   -29.8822     0.0000     8.0000 </r>
       <r>   -29.6983     0.0000     8.0000 </r>
       <r>   -29.5144     0.0000     8.0000 </r>
       <r>   -29.3305     0.0000     8.0000 </r>
       <r>   -29.1466     0.0000     8.0000 </r>
       <r>   -28.9627     0.0000     8.0000 </r>
       <r>   -28.7789     0.0000     8.0000 </r>
       <r>   -28.5950     0.0000     8.0000 </r>
       <r>   -28.4111     0.0000     8.0000 </r>
       <r>   -28.2272     0.0000     8.0000 </r>
       <r>   -28.0433     0.0000     8.0000 </r>
       <r>   -27.8594     0.0000     8.0000 </r>
       <r>   -27.6755     0.0000     8.0000 </r>
       <r>   -27.4916     0.0000     8.0000 </r>
       <r>   -27.3077     0.0000     8.0000 </r>
       <r>   -27.1238     0.0000     8.0000 </r>
       <r>   -26.9400     0.0000     8.0000 </r>
       <r>   -26.7561     0.0000     8.0000 </r>
       <r>   -26.5722     0.0000     8.0000 </r>
       <r>   -26.3883     0.0000     8.0000 </r>
       <r>   -26.2044     0.0000     8.0000 </r>
       <r>   -26.0205     0.0000     8.0000 </r>
       <r>   -25.8366     0.0000     8.0000 </r>
       <r>   -25.6527     0.0000     8.0000 </r>
       <r>   -25.4688     0.0000     8.0000 </r>
       <r>   -25.2849     0.0000     8.0000 </r>
       <r>   -25.1010     0.0000     8.0000 </r>
       <r>   -24.9172     0.0000     8.0000 </r>
       <r>   -24.7333     0.0000     8.0000 </r>
       <r>   -24.5494     0.0000     8.0000 </r>
       <r>   -24.3655     0.0000     8.0000 </r>
       <r>   -24.1816     0.0000     8.0000 </r>
       <r>   -23.9977     0.0000     8.0000 </r>
       <r>   -23.8138     0.0000     8.0000 </r>
       <r>   -23.6299     0.0000     8.0000 </r>
       <r>   -23.4460     0.0000     8.0000 </r>
       <r>   -23.2621     0.0000     8.0000 </r>
       <r>   -23.0783     0.0000     8.0000 </r>
       <r>   -22.8944     0.0000     8.0000 </r>
       <r>   -22.7105     0.0000     8.0000 </r>
       <r>   -22.5266     0.0000     8.0000 </r>
       <r>   -22.3427     0.0000     8.0000 </r>
       <r>   -22.1588     0.0000     8.0000 </r>
       <r>   -21.9749     0.0000     8.0000 </r>
       <r>   -21.7910     0.0000     8.0000 </r>
       <r>   -21.6071     0.0000     8.0000 </r>
       <r>   -21.4232     0.0000     8.0000 </r>
       <r>   -21.2393     0.0000     8.0000 </r>
       <r>   -21.0555     0.0000     8.0000 </r>
       <r>   -20.8716     0.0000     8.0000 </r>
       <r>   -20.6877     0.0000     8.0000 </r>
       <r>   -20.5038     0.0000     8.0000 </r>
       <r>   -20.3199     0.0000     8.0000 </r>
       <r>   -20.1360     0.0000     8.0000 </r>
       <r>   -19.9521     0.0000     8.0000 </r>
       <r>   -19.7682     0.0000     8.0000 </r>
       <r>   -19.5843     0.0000     8.0000 </r>
       <r>   -19.4004     0.0000     8.0000 </r>
       <r>   -19.2165     0.0000     8.0000 </r>
       <r>   -19.0327     0.0000    58.0000 </r>
       <r>   -18.8488     0.0000    90.0000 </r>
       <r>   -18.6649     0.0000   136.0000 </r>
       <r>   -18.4810     0.0000   154.0000 </r>
       <r>   -18.2971     0.0000   168.0000 </r>
       <r>   -18.1132     0.0000   168.0000 </r>
       <r>   -17.9293     0.0000   168.0000 </r>
       <r>   -17.7454     0.0000   168.0000 </r>
       <r>   -17.5615     0.0000   168.0000 </r>
       <r>   -17.3776     0.0000   168.0000 </r>
       <r>   -17.1938     0.0000   168.0000 </r>
       <r>   -17.0099     0.0000   168.0000 </r>
       <r>   -16.8260     0.0000   168.0000 </r>
       <r>   -16.6421     0.0000   168.0000 </r>
       <r>   -16.4582     0.0000   168.0000 </r>
       <r>   -16.2743     0.0000   168.0000 </r>
       <r>   -16.0904     0.0000   168.0000 </r>
       <r>   -15.9065     0.0000   168.0000 </r>
       <r>   -15.7226     0.0000   168.0000 </r>
       <r>   -15.5387     0.0000   168.0000 </r>
       <r>   -15.3548     0.0000   168.0000 </r>
       <r>   -15.1710     0.0000   168.0000 </r>
       <r>   -14.9871     0.0000   168.0000 </r>
       <r>   -14.8032     0.0000   168.0000 </r>
       <r>   -14.6193     0.0000   168.0000 </r>
       <r>   -14.4354     0.0000   168.0000 </r>
       <r>   -14.2515     0.0000   168.0000 </r>
       <r>   -14.0676     0.0000   168.0000 </r>
       <r>   -13.8837     0.0000   170.0000 </r>
       <r>   -13.6998     0.0000   172.0000 </r>
       <r>   -13.5159     0.0000   176.0000 </r>
       <r>   -13.3320     0.0000   180.0000 </r>
       <r>   -13.1482     0.0000   182.0000 </r>
       <r>   -12.9643     0.0000   188.0000 </r>
       <r>   -12.7804     0.0000   190.0000 </r>
       <r>   -12.5965     0.0000   194.0000 </r>
       <r>   -12.4126     0.0000   198.0000 </r>
       <r>   -12.2287     0.0000   200.0000 </r>
       <r>   -12.0448     0.0000   200.0000 </r>
       <r>   -11.8609     0.0000   200.0000 </r>
       <r>   -11.6770     0.0000   200.0000 </r>
       <r>   -11.4931     0.0000   200.0000 </r>
       <r>   -11.3093     0.0000   200.0000 </r>
       <r>   -11.1254     0.0000   200.0000 </r>
       <r>   -10.9415     0.0000   200.0000 </r>
       <r>   -10.7576     0.0000   200.0000 </r>
       <r>   -10.5737     0.0000   200.0000 </r>
       <r>   -10.3898     0.0000   200.0000 </r>
       <r>   -10.2059     0.0000   200.0000 </r>
       <r>   -10.0220     0.0000   200.0000 </r>
       <r>    -9.8381     0.0000   200.0000 </r>
       <r>    -9.6542    12.3290   200.3475 </r>
       <r>    -9.4703     0.0000   202.0000 </r>
       <r>    -9.2865     9.6248   202.8726 </r>
       <r>    -9.1026     0.3322   203.9983 </r>
       <r>    -8.9187     0.0000   206.0000 </r>
       <r>    -8.7348    21.5842   210.2319 </r>
       <r>    -8.5509    11.9046   212.7227 </r>
       <r>    -8.3670     3.5232   215.9601 </r>
       <r>    -8.1831    45.3089   221.1855 </r>
       <r>    -7.9992    15.6186   226.6637 </r>
       <r>    -7.8153    20.3480   229.0061 </r>
       <r>    -7.6314     0.0000   232.0000 </r>
       <r>    -7.4475     0.0000   232.0000 </r>
       <r>    -7.2637     0.0000   232.0000 </r>
       <r>    -7.0798     0.0000   232.0000 </r>
       <r>    -6.8959     0.0000   232.0000 </r>
       <r>    -6.7120     0.0000   232.0000 </r>
       <r>    -6.5281    33.4772   233.2442 </r>
       <r>    -6.3442    13.8805   237.1719 </r>
       <r>    -6.1603     8.5454   239.9698 </r>
       <r>    -5.9764    12.3775   243.2501 </r>
       <r>    -5.7925    33.9592   247.2961 </r>
       <r>    -5.6086     9.5100   250.9899 </r>
       <r>    -5.4248    19.0108   253.8422 </r>
       <r>    -5.2409     3.1962   255.9611 </r>
       <r>    -5.0570    14.6242   257.9723 </r>
       <r>    -4.8731     7.9011   259.5826 </r>
       <r>    -4.6892     5.8077   260.7841 </r>
       <r>    -4.5053     9.6208   262.3064 </r>
       <r>    -4.3214     3.5546   263.4147 </r>
       <r>    -4.1375     1.5458   263.8831 </r>
       <r>    -3.9536     0.0141   263.9999 </r>
       <r>    -3.7697     0.0000   264.0000 </r>
       <r>    -3.5858     0.0000   264.0000 </r>
       <r>    -3.4020     0.0000   264.0000 </r>
       <r>    -3.2181     0.0000   264.0000 </r>
       <r>    -3.0342     0.0000   264.0000 </r>
       <r>    -2.8503     0.0000   264.0000 </r>
       <r>    -2.6664     0.0000   264.0000 </r>
       <r>    -2.4825     0.0000   264.0000 </r>
       <r>    -2.2986     0.0000   264.0000 </r>
       <r>    -2.1147     0.0000   264.0000 </r>
       <r>    -1.9308     0.0000   264.0000 </r>
       <r>    -1.7469     0.0000   264.0000 </r>
       <r>    -1.5631     0.5191   264.0050 </r>
       <r>    -1.3792     6.3931   264.8929 </r>
       <r>    -1.1953     7.6452   266.1603 </r>
       <r>    -1.0114    15.4220   268.1549 </r>
       <r>    -0.8275    16.4437   271.4337 </r>
       <r>    -0.6436    18.2396   276.3146 </r>
       <r>    -0.4597    29.1179   281.4892 </r>
       <r>    -0.2758    33.1300   287.2643 </r>
       <r>    -0.0919    31.9513   292.8167 </r>
       <r>     0.0920    20.6238   299.4497 </r>
       <r>     0.2759    39.9747   306.5687 </r>
       <r>     0.4597    25.2671   313.5423 </r>
       <r>     0.6436    50.4669   320.7527 </r>
       <r>     0.8275    32.7897   328.8404 </r>
       <r>     1.0114    47.4118   337.0033 </r>
       <r>     1.1953    42.8746   345.6856 </r>
       <r>     1.3792    52.7796   353.7209 </r>
       <r>     1.5631    37.6709   361.9265 </r>
       <r>     1.7470    45.6541   369.8044 </r>
       <r>     1.9309    42.4785   377.4581 </r>
       <r>     2.1148    52.0932   386.7472 </r>
       <r>     2.2987    50.4203   396.5819 </r>
       <r>     2.4825    56.5249   406.5272 </r>
       <r>     2.6664    58.6516   416.2381 </r>
       <r>     2.8503    51.7561   427.4727 </r>
       <r>     3.0342    47.0739   436.5038 </r>
       <r>     3.2181    48.6727   444.1471 </r>
       <r>     3.4020    19.5128   449.9143 </r>
       <r>     3.5859    18.3417   453.7613 </r>
       <r>     3.7698     4.8374   455.7758 </r>
       <r>     3.9537     0.0000   456.0000 </r>
       <r>     4.1376     0.0000   456.0000 </r>
       <r>     4.3214     0.0000   456.0000 </r>
       <r>     4.5053     0.0000   456.0000 </r>
       <r>     4.6892     0.0000   456.0000 </r>
       <r>     4.8731     0.0000   456.0000 </r>
       <r>     5.0570     5.0873   456.2775 </r>
       <r>     5.2409    11.8160   458.0977 </r>
       <r>     5.4248    12.6750   460.2356 </r>
       <r>     5.6087    18.1809   463.3305 </r>
       <r>     5.7926    16.8287   466.5800 </r>
       <r>     5.9765    14.8198   469.4807 </r>
       <r>     6.1604    15.6129   472.2441 </r>
       <r>     6.3442    17.9302   475.3142 </r>
       <r>     6.5281    20.5919   478.8542 </r>
       <r>     6.7120    24.4418   482.9779 </r>
       <r>     6.8959    21.5833   487.1089 </r>
       <r>     7.0798    27.7705   491.3317 </r>
       <r>     7.2637    18.9296   496.3028 </r>
       <r>     7.4476    34.2757   502.0975 </r>
       <r>     7.6315    27.4711   507.9813 </r>
       <r>     7.8154    31.2795   513.5470 </r>
       <r>     7.9993    30.1507   519.4252 </r>
       <r>     8.1832    28.0202   524.5122 </r>
       <r>     8.3670    29.4200   529.6373 </r>
       <r>     8.5509    31.8463   536.0886 </r>
       <r>     8.7348    25.0250   541.4298 </r>
       <r>     8.9187    20.4532   545.6366 </r>
       <r>     9.1026    17.6650   548.8735 </r>
       <r>     9.2865    13.0798   551.9790 </r>
       <r>     9.4704    11.5487   554.1409 </r>
       <r>     9.6543    10.3420   555.9048 </r>
       <r>     9.8382    10.8890   558.1196 </r>
       <r>    10.0221     2.0755   559.9537 </r>
       <r>    10.2059     0.0000   560.0000 </r>
       <r>    10.3898     0.0000   560.0000 </r>
       <r>    10.5737     0.0000   560.0000 </r>
       <r>    10.7576     0.0000   560.0000 </r>
       <r>    10.9415     0.0000   560.0000 </r>
       <r>    11.1254     0.0000   560.0000 </r>
       <r>    11.3093     0.0000   560.0000 </r>
       <r>    11.4932     0.0000   560.0000 </r>
       <r>    11.6771     0.0000   560.0000 </r>
       <r>    11.8610     0.0000   560.0000 </r>
       <r>    12.0449     0.0000   560.0000 </r>
       <r>    12.2287     0.0000   560.0000 </r>
       <r>    12.4126     0.0000   560.0000 </r>
       <r>    12.5965     0.0000   560.0000 </r>
      </set>
     </set>
    </array>
   </total>
  </dos>
 </calculation>
 <structure name="finalpos" >
  <crystal>
   <varray name="basis" >
    <v>      11.27450637      -0.14885863       0.01530943 </v>
    <v>      -0.12230825       9.66762949       0.06941619 </v>
    <v>       0.01264056       0.09194523      11.24791464 </v>
   </varray>
   <i name="volume">   1225.71847175 </i>
   <varray name="rec_basis" >
    <v>       0.08871066       0.00112309      -0.00010887 </v>
    <v>       0.00136716       0.10346135      -0.00084727 </v>
    <v>      -0.00012918      -0.00064004       0.08891075 </v>
   </varray>
  </crystal>
  <varray name="positions" >
   <v>       0.42830275      -0.02243493       0.16378815 </v>
   <v>       0.47837568       0.01366390       0.39302015 </v>
   <v>       0.25417909       0.03006675       0.95091409 </v>
   <v>       0.48977723      -0.02251088       0.67415588 </v>
   <v>       0.87886355       0.00458547       0.44282082 </v>
   <v>       0.84940585       0.00182629       0.18855153 </v>
   <v>       0.10699215       0.01351718       0.68393095 </v>
   <v>       0.63108552       0.99702099       0.94493894 </v>
   <v>       0.89549283       0.00139312       0.93763201 </v>
   <v>       0.84345283       0.00654590       0.69384591 </v>
   <v>       0.00160607       0.31691791       0.07299508 </v>
   <v>       0.25939680       0.69984113       0.06757041 </v>
   <v>       0.26121785       0.22512734       0.31188658 </v>
   <v>       0.49915865       0.69137697       0.31152667 </v>
   <v>       0.50033651       0.30079064       0.06391602 </v>
   <v>       0.74758814       0.68087464       0.06549556 </v>
   <v>       0.74778569       0.31386836       0.31900071 </v>
   <v>      -0.00140978       0.69778603       0.30978000 </v>
   <v>      -0.00525297       0.32900602       0.56375356 </v>
   <v>       0.23946281       0.71101258       0.55922192 </v>
   <v>       0.24161931       0.31534997       0.80773172 </v>
   <v>       0.49854094       0.69177623       0.81627146 </v>
   <v>       0.49150625       0.30466050       0.55892932 </v>
   <v>       0.74014420       0.68858678       0.55924381 </v>
   <v>       0.74412933       0.32123512       0.81937923 </v>
   <v>      -0.00110701       0.68776983       0.80984736 </v>
   <v>       0.23975215       0.28330407       0.06765618 </v>
   <v>      -0.00843514       0.67329855       0.06139317 </v>
   <v>       0.47916650       0.35217765       0.31743167 </v>
   <v>       0.24087503       0.66855339       0.31360305 </v>
   <v>       0.74439457       0.36560784       0.06926618 </v>
   <v>       0.49717869       0.63172685       0.06137760 </v>
   <v>      -0.01460849       0.36082924       0.31915536 </v>
   <v>       0.74582194       0.63811845       0.31793323 </v>
   <v>       0.23619520       0.33936463       0.56794011 </v>
   <v>      -0.01198184       0.64008548       0.56531277 </v>
   <v>       0.49154852       0.32994544       0.81697082 </v>
   <v>       0.23766723       0.66621926       0.81306013 </v>
   <v>       0.74138269       0.34274696       0.57324716 </v>
   <v>       0.49431609       0.72448629       0.56754014 </v>
   <v>       0.98750287       0.36638448       0.82052001 </v>
   <v>       0.74206945       0.63801782       0.81741080 </v>
   <v>       0.53225799       0.09383405       0.05568386 </v>
   <v>       0.29971221       0.90155078       0.05734196 </v>
   <v>       0.33759586       0.04473099       0.30131559 </v>
   <v>      -0.05008924       0.90525651       0.30955630 </v>
   <v>       0.95398253       0.10633578       0.07143509 </v>
   <v>       0.76759033       0.90946512       0.04320455 </v>
   <v>       0.78379769       0.10362449       0.32185172 </v>
   <v>       0.53548094       0.89118090       0.27767863 </v>
   <v>       0.49582448       0.09797182       0.54740100 </v>
   <v>       0.20022078       0.91099422       0.57576606 </v>
   <v>       0.20426150       0.10483744       0.80532339 </v>
   <v>      -0.02705074       0.91804141       0.79486118 </v>
   <v>       0.96796448       0.09946230       0.58471301 </v>
   <v>       0.78229173       0.90008590       0.56269933 </v>
   <v>       0.76666012       0.09089912       0.83619401 </v>
   <v>       0.53600363       0.90158890       0.82386809 </v>
  </varray>
 </structure>
</modeling>
