<?xml version="1.0" encoding="ISO-8859-1"?>
<modeling>
 <generator>
  <i name="program" type="string">vasp </i>
  <i name="version" type="string">5.4.4.18Apr17-6-g9f103f2a35  </i>
  <i name="subversion" type="string">(build Jul 31 2017 11:33:29) complex            parallel </i>
  <i name="platform" type="string">LinuxIFC </i>
  <i name="date" type="string">2021 09 22 </i>
  <i name="time" type="string">23:40:37 </i>
 </generator>
 <incar>
  <i type="string" name="SYSTEM"> La2O2S</i>
  <i type="string" name="PREC">normal</i>
  <i type="int" name="NELMIN">     4</i>
  <i type="int" name="IBRION">     2</i>
  <i type="int" name="NFREE">    10</i>
  <i name="EDIFF">      0.00000100</i>
  <i name="EDIFFG">     -0.01000000</i>
  <i type="int" name="NSW">   200</i>
  <i type="int" name="ISIF">     3</i>
  <i name="ENCUT">    600.00000000</i>
  <i name="ENAUG">    900.00000000</i>
  <i type="int" name="ISMEAR">    -5</i>
  <i type="logical" name="LWAVE"> F  </i>
  <i type="logical" name="LCHARG"> F  </i>
  <v type="int" name="KPOINT_BSE">    -1     0     0     0</v>
 </incar>
 <structure name="primitive_cell" >
  <crystal>
   <varray name="basis" >
    <v>      11.17850000       0.00000000       0.00000000 </v>
    <v>       0.00000000       9.57460000       0.00000000 </v>
    <v>       0.00000000       0.00000000      11.18240000 </v>
   </varray>
   <i name="volume">   1196.84853820 </i>
   <varray name="rec_basis" >
    <v>       0.08945744       0.00000000       0.00000000 </v>
    <v>       0.00000000       0.10444301       0.00000000 </v>
    <v>       0.00000000       0.00000000       0.08942624 </v>
   </varray>
  </crystal>
  <varray name="positions" >
   <v>       0.12461000      -0.00016000       0.18687000 </v>
   <v>      -0.00013000       0.07798000       0.06246000 </v>
   <v>       0.24987000      -0.07798000       0.06246000 </v>
   <v>       0.00013000      -0.07798000       0.31246000 </v>
   <v>       0.25013000       0.07798000       0.31246000 </v>
   <v>       0.37461000       0.00017000       0.18687000 </v>
   <v>      -0.12539000       0.00017000       0.18687000 </v>
   <v>       0.12539000      -0.00016000      -0.06313000 </v>
   <v>       0.00013000       0.29519000       0.06281000 </v>
   <v>       0.25013000      -0.29519000       0.06281000 </v>
   <v>      -0.00013000      -0.29519000       0.31282000 </v>
   <v>       0.24987000       0.29519000       0.31282000 </v>
   <v>       0.00005000      -0.32677000       0.06286000 </v>
   <v>       0.25005000       0.32677000       0.06286000 </v>
   <v>      -0.00005000       0.32677000       0.31286000 </v>
   <v>       0.24995000      -0.32677000       0.31286000 </v>
   <v>      -0.12461000       0.00017000       0.43687000 </v>
   <v>      -0.12461000       0.00017000      -0.06313000 </v>
   <v>       0.37539000       0.00017000      -0.06313000 </v>
   <v>       0.00013000      -0.07798000      -0.18754000 </v>
   <v>      -0.25013000      -0.07798000       0.06246000 </v>
   <v>      -0.24987000       0.07798000       0.31246000 </v>
   <v>       0.25013000       0.07798000      -0.18754000 </v>
   <v>       0.49987000       0.07798000       0.06246000 </v>
   <v>      -0.00013000       0.07798000      -0.43754000 </v>
   <v>      -0.49987000      -0.07798000       0.31246000 </v>
   <v>       0.24987000      -0.07798000      -0.43754000 </v>
   <v>      -0.00013000      -0.29519000      -0.18718000 </v>
   <v>      -0.24987000      -0.29519000       0.06281000 </v>
   <v>       0.24987000       0.29519000      -0.18718000 </v>
   <v>      -0.25013000       0.29519000       0.31282000 </v>
   <v>      -0.49987000       0.29519000       0.06281000 </v>
   <v>       0.49987000      -0.29519000       0.31282000 </v>
   <v>       0.00013000       0.29519000      -0.43719000 </v>
   <v>       0.25013000      -0.29519000      -0.43719000 </v>
   <v>      -0.00005000       0.32677000      -0.18714000 </v>
   <v>       0.24995000      -0.32677000      -0.18714000 </v>
   <v>      -0.24995000       0.32677000       0.06286000 </v>
   <v>      -0.25005000      -0.32677000       0.31286000 </v>
   <v>      -0.49995000      -0.32677000       0.06286000 </v>
   <v>       0.49995000       0.32677000       0.31286000 </v>
   <v>       0.00005000      -0.32677000      -0.43714000 </v>
   <v>       0.25005000       0.32677000      -0.43714000 </v>
   <v>      -0.37539000      -0.00016000       0.18687000 </v>
   <v>      -0.24987000       0.07798000      -0.18754000 </v>
   <v>      -0.49987000      -0.07798000      -0.18754000 </v>
   <v>      -0.25013000      -0.07798000      -0.43754000 </v>
   <v>       0.49987000       0.07798000      -0.43754000 </v>
   <v>      -0.37461000      -0.00016000      -0.06313000 </v>
   <v>      -0.37461000      -0.00016000       0.43687000 </v>
   <v>       0.37461000       0.00017000      -0.31313000 </v>
   <v>      -0.12539000       0.00017000      -0.31313000 </v>
   <v>      -0.25013000       0.29519000      -0.18718000 </v>
   <v>       0.49987000      -0.29519000      -0.18718000 </v>
   <v>      -0.24987000      -0.29519000      -0.43719000 </v>
   <v>      -0.49987000       0.29519000      -0.43719000 </v>
   <v>      -0.25005000      -0.32677000      -0.18714000 </v>
   <v>       0.49995000       0.32677000      -0.18714000 </v>
   <v>      -0.24995000       0.32677000      -0.43714000 </v>
   <v>      -0.49995000      -0.32677000      -0.43714000 </v>
   <v>      -0.37539000      -0.00016000      -0.31313000 </v>
  </varray>
 </structure>
 <varray name="primitive_index" >
  <v type="int" >        1 </v>
  <v type="int" >       50 </v>
  <v type="int" >       47 </v>
  <v type="int" >       49 </v>
  <v type="int" >       48 </v>
  <v type="int" >        2 </v>
  <v type="int" >        5 </v>
  <v type="int" >        6 </v>
  <v type="int" >       14 </v>
  <v type="int" >       15 </v>
  <v type="int" >       21 </v>
  <v type="int" >       16 </v>
  <v type="int" >       31 </v>
  <v type="int" >       30 </v>
  <v type="int" >       36 </v>
  <v type="int" >       33 </v>
  <v type="int" >        3 </v>
  <v type="int" >       13 </v>
  <v type="int" >       12 </v>
  <v type="int" >       57 </v>
  <v type="int" >       51 </v>
  <v type="int" >       52 </v>
  <v type="int" >       56 </v>
  <v type="int" >       46 </v>
  <v type="int" >       58 </v>
  <v type="int" >       53 </v>
  <v type="int" >       55 </v>
  <v type="int" >       29 </v>
  <v type="int" >       19 </v>
  <v type="int" >       24 </v>
  <v type="int" >       20 </v>
  <v type="int" >       18 </v>
  <v type="int" >       17 </v>
  <v type="int" >       22 </v>
  <v type="int" >       23 </v>
  <v type="int" >       44 </v>
  <v type="int" >       41 </v>
  <v type="int" >       34 </v>
  <v type="int" >       37 </v>
  <v type="int" >       35 </v>
  <v type="int" >       32 </v>
  <v type="int" >       39 </v>
  <v type="int" >       38 </v>
  <v type="int" >        4 </v>
  <v type="int" >       60 </v>
  <v type="int" >       61 </v>
  <v type="int" >       59 </v>
  <v type="int" >       54 </v>
  <v type="int" >        8 </v>
  <v type="int" >       11 </v>
  <v type="int" >        7 </v>
  <v type="int" >       10 </v>
  <v type="int" >       28 </v>
  <v type="int" >       25 </v>
  <v type="int" >       27 </v>
  <v type="int" >       26 </v>
  <v type="int" >       45 </v>
  <v type="int" >       40 </v>
  <v type="int" >       42 </v>
  <v type="int" >       43 </v>
  <v type="int" >        9 </v>
 </varray>
 <kpoints>
  <generation param="Gamma">
   <v type="int" name="divisions">       2        2        2 </v>
   <v name="usershift">      0.00000000       0.00000000       0.00000000 </v>
   <v name="genvec1">      0.50000000       0.00000000       0.00000000 </v>
   <v name="genvec2">      0.00000000       0.50000000       0.00000000 </v>
   <v name="genvec3">      0.00000000       0.00000000       0.50000000 </v>
   <v name="shift">      0.00000000       0.00000000       0.00000000 </v>
  </generation>
  <varray name="kpointlist" >
   <v>       0.00000000       0.00000000       0.00000000 </v>
   <v>       0.50000000       0.00000000       0.00000000 </v>
   <v>       0.00000000       0.50000000       0.00000000 </v>
   <v>       0.50000000       0.50000000       0.00000000 </v>
   <v>       0.00000000       0.00000000       0.50000000 </v>
   <v>       0.50000000       0.00000000       0.50000000 </v>
   <v>       0.00000000       0.50000000       0.50000000 </v>
   <v>       0.50000000       0.50000000       0.50000000 </v>
  </varray>
  <varray name="weights" >
   <v>       0.12500000 </v>
   <v>       0.12500000 </v>
   <v>       0.12500000 </v>
   <v>       0.12500000 </v>
   <v>       0.12500000 </v>
   <v>       0.12500000 </v>
   <v>       0.12500000 </v>
   <v>       0.12500000 </v>
  </varray>
  <varray name="tetrahedronlist"  type="int" >
   <v type="int" >        2        1        2        4        5 </v>
   <v type="int" >        2        1        3        4        5 </v>
   <v type="int" >        2        3        4        5        7 </v>
   <v type="int" >        2        2        4        5        6 </v>
   <v type="int" >        2        4        5        6        8 </v>
   <v type="int" >        2        4        5        7        8 </v>
   <v type="int" >        2        1        2        3        6 </v>
   <v type="int" >        2        2        3        4        6 </v>
   <v type="int" >        2        3        4        6        8 </v>
   <v type="int" >        2        1        3        5        6 </v>
   <v type="int" >        2        3        5        6        7 </v>
   <v type="int" >        2        3        6        7        8 </v>
   <v type="int" >        2        2        3        4        7 </v>
   <v type="int" >        2        1        2        3        7 </v>
   <v type="int" >        2        1        2        5        7 </v>
   <v type="int" >        2        2        4        7        8 </v>
   <v type="int" >        2        2        6        7        8 </v>
   <v type="int" >        2        2        5        6        7 </v>
   <v type="int" >        2        1        3        4        8 </v>
   <v type="int" >        2        1        2        4        8 </v>
   <v type="int" >        2        1        2        6        8 </v>
   <v type="int" >        2        1        3        7        8 </v>
   <v type="int" >        2        1        5        7        8 </v>
   <v type="int" >        2        1        5        6        8 </v>
  </varray>
  <i name="volumeweight">      0.02083333 </i>
 </kpoints>
 <parameters>
  <separator name="general" >
   <i type="string" name="SYSTEM">La2O2S</i>
   <i type="logical" name="LCOMPAT"> F  </i>
  </separator>
  <separator name="electronic" >
   <i type="string" name="PREC">normal</i>
   <i name="ENMAX">    600.00000000</i>
   <i name="ENAUG">    900.00000000</i>
   <i name="EDIFF">      0.00000100</i>
   <i type="int" name="IALGO">    38</i>
   <i type="int" name="IWAVPR">    11</i>
   <i type="int" name="NBANDS">   280</i>
   <i name="NELECT">    468.00000000</i>
   <i type="int" name="TURBO">     0</i>
   <i type="int" name="IRESTART">     0</i>
   <i type="int" name="NREBOOT">     0</i>
   <i type="int" name="NMIN">     0</i>
   <i name="EREF">      0.00000000</i>
   <separator name="electronic smearing" >
    <i type="int" name="ISMEAR">    -5</i>
    <i name="SIGMA">      0.20000000</i>
    <i name="KSPACING">      0.50000000</i>
    <i type="logical" name="KGAMMA"> T  </i>
   </separator>
   <separator name="electronic projectors" >
    <i type="logical" name="LREAL"> F  </i>
    <v name="ROPT">      0.00000000      0.00000000      0.00000000      0.00000000      0.00000000</v>
    <i type="int" name="LMAXPAW">  -100</i>
    <i type="int" name="LMAXMIX">     2</i>
    <i type="logical" name="NLSPLINE"> F  </i>
   </separator>
   <separator name="electronic startup" >
    <i type="int" name="ISTART">     0</i>
    <i type="int" name="ICHARG">     2</i>
    <i type="int" name="INIWAV">     1</i>
   </separator>
   <separator name="electronic spin" >
    <i type="int" name="ISPIN">     1</i>
    <i type="logical" name="LNONCOLLINEAR"> F  </i>
    <v name="MAGMOM">      1.00000000      1.00000000      1.00000000      1.00000000      1.00000000      1.00000000      1.00000000      1.00000000      1.00000000      1.00000000      1.00000000      1.00000000      1.00000000      1.00000000      1.00000000      1.00000000      1.00000000      1.00000000      1.00000000      1.00000000
      1.00000000      1.00000000      1.00000000      1.00000000      1.00000000      1.00000000      1.00000000      1.00000000      1.00000000      1.00000000      1.00000000      1.00000000      1.00000000      1.00000000      1.00000000      1.00000000      1.00000000      1.00000000      1.00000000      1.00000000
      1.00000000      1.00000000      1.00000000      1.00000000      1.00000000      1.00000000      1.00000000      1.00000000      1.00000000      1.00000000      1.00000000      1.00000000      1.00000000      1.00000000      1.00000000      1.00000000      1.00000000      1.00000000      1.00000000      1.00000000
      1.00000000</v>
    <i name="NUPDOWN">     -1.00000000</i>
    <i type="logical" name="LSORBIT"> F  </i>
    <v name="SAXIS">      0.00000000      0.00000000      1.00000000</v>
    <i type="logical" name="LSPIRAL"> F  </i>
    <v name="QSPIRAL">      0.00000000      0.00000000      0.00000000</v>
    <i type="logical" name="LZEROZ"> F  </i>
   </separator>
   <separator name="electronic exchange-correlation" >
    <i type="logical" name="LASPH"> F  </i>
    <i type="logical" name="LMETAGGA"> F  </i>
   </separator>
   <separator name="electronic convergence" >
    <i type="int" name="NELM">    60</i>
    <i type="int" name="NELMDL">    -5</i>
    <i type="int" name="NELMIN">     4</i>
    <i name="ENINI">    600.00000000</i>
    <separator name="electronic convergence detail" >
     <i type="logical" name="LDIAG"> T  </i>
     <i type="logical" name="LSUBROT"> F  </i>
     <i name="WEIMIN">      0.00100000</i>
     <i name="EBREAK">      0.00000000</i>
     <i name="DEPER">      0.30000000</i>
     <i type="int" name="NRMM">     4</i>
     <i name="TIME">      0.40000000</i>
    </separator>
   </separator>
   <separator name="electronic mixer" >
    <i name="AMIX">      0.40000000</i>
    <i name="BMIX">      1.00000000</i>
    <i name="AMIN">      0.10000000</i>
    <i name="AMIX_MAG">      1.60000000</i>
    <i name="BMIX_MAG">      1.00000000</i>
    <separator name="electronic mixer details" >
     <i type="int" name="IMIX">     4</i>
     <i type="logical" name="MIXFIRST"> F  </i>
     <i type="int" name="MAXMIX">   -45</i>
     <i name="WC">    100.00000000</i>
     <i type="int" name="INIMIX">     1</i>
     <i type="int" name="MIXPRE">     1</i>
     <i type="int" name="MREMOVE">     5</i>
    </separator>
   </separator>
   <separator name="electronic dipolcorrection" >
    <i type="logical" name="LDIPOL"> F  </i>
    <i type="logical" name="LMONO"> F  </i>
    <i type="int" name="IDIPOL">     0</i>
    <i name="EPSILON">      1.00000000</i>
    <v name="DIPOL">   -100.00000000   -100.00000000   -100.00000000</v>
    <i name="EFIELD">      0.00000000</i>
   </separator>
  </separator>
  <separator name="grids" >
   <i type="int" name="NGX">    70</i>
   <i type="int" name="NGY">    60</i>
   <i type="int" name="NGZ">    70</i>
   <i type="int" name="NGXF">   140</i>
   <i type="int" name="NGYF">   120</i>
   <i type="int" name="NGZF">   140</i>
   <i type="logical" name="ADDGRID"> F  </i>
  </separator>
  <separator name="ionic" >
   <i type="int" name="NSW">   200</i>
   <i type="int" name="IBRION">     2</i>
   <i type="int" name="MDALGO">     0</i>
   <i type="int" name="ISIF">     3</i>
   <i name="PSTRESS">      0.00000000</i>
   <i name="EDIFFG">     -0.01000000</i>
   <i type="int" name="NFREE">    10</i>
   <i name="POTIM">      0.50000000</i>
   <i name="SMASS">     -3.00000000</i>
   <i name="SCALEE">      1.00000000</i>
  </separator>
  <separator name="ionic md" >
   <i name="TEBEG">      0.00010000</i>
   <i name="TEEND">      0.00010000</i>
   <i type="int" name="NBLOCK">     1</i>
   <i type="int" name="KBLOCK">   200</i>
   <i type="int" name="NPACO">   256</i>
   <i name="APACO">     16.00000000</i>
  </separator>
  <separator name="symmetry" >
   <i type="int" name="ISYM">     2</i>
   <i name="SYMPREC">      0.00001000</i>
  </separator>
  <separator name="dos" >
   <i type="int" name="LORBIT">     0</i>
   <v name="RWIGS">     -1.00000000     -1.00000000     -1.00000000     -1.00000000     -1.00000000</v>
   <i type="int" name="NEDOS">   301</i>
   <i name="EMIN">     10.00000000</i>
   <i name="EMAX">    -10.00000000</i>
   <i name="EFERMI">      0.00000000</i>
  </separator>
  <separator name="writing" >
   <i type="int" name="NWRITE">     2</i>
   <i type="logical" name="LWAVE"> F  </i>
   <i type="logical" name="LDOWNSAMPLE"> F  </i>
   <i type="logical" name="LCHARG"> F  </i>
   <i type="logical" name="LPARD"> F  </i>
   <i type="logical" name="LVTOT"> F  </i>
   <i type="logical" name="LVHAR"> F  </i>
   <i type="logical" name="LELF"> F  </i>
   <i type="logical" name="LOPTICS"> F  </i>
   <v name="STM">      0.00000000      0.00000000      0.00000000      0.00000000      0.00000000      0.00000000      0.00000000</v>
  </separator>
  <separator name="performance" >
   <i type="int" name="NPAR">    28</i>
   <i type="int" name="NSIM">     4</i>
   <i type="int" name="NBLK">    -1</i>
   <i type="logical" name="LPLANE"> T  </i>
   <i type="logical" name="LSCALAPACK"> T  </i>
   <i type="logical" name="LSCAAWARE"> F  </i>
   <i type="logical" name="LSCALU"> F  </i>
   <i type="logical" name="LASYNC"> F  </i>
   <i type="logical" name="LORBITALREAL"> F  </i>
  </separator>
  <separator name="miscellaneous" >
   <i type="int" name="IDIOT">     3</i>
   <i type="int" name="ISPECIAL">     0</i>
   <i type="logical" name="LMUSIC"> F  </i>
   <v name="POMASS">      7.01000000     24.30500000    208.98000000     32.06600000     16.00000000</v>
   <v name="DARWINR">      0.00000000      0.00000000      0.00000000      0.00000000      0.00000000</v>
   <v name="DARWINV">      1.00000000      1.00000000      1.00000000      1.00000000      1.00000000</v>
   <i type="logical" name="LCORR"> T  </i>
  </separator>
  <i type="logical" name="GGA_COMPAT"> T  </i>
  <i type="logical" name="LBERRY"> F  </i>
  <i type="int" name="ICORELEVEL">     0</i>
  <i type="logical" name="LDAU"> F  </i>
  <i type="int" name="I_CONSTRAINED_M">     0</i>
  <separator name="electronic exchange-correlation" >
   <i type="string" name="GGA">--</i>
   <i type="int" name="VOSKOWN">     0</i>
   <i type="logical" name="LHFCALC"> F  </i>
   <i type="string" name="PRECFOCK"></i>
   <i type="logical" name="LSYMGRAD"> F  </i>
   <i type="logical" name="LHFONE"> F  </i>
   <i type="logical" name="LRHFCALC"> F  </i>
   <i type="logical" name="LTHOMAS"> F  </i>
   <i type="logical" name="LMODELHF"> F  </i>
   <i name="ENCUT4O">     -1.00000000</i>
   <i type="int" name="EXXOEP">     0</i>
   <i type="int" name="FOURORBIT">     0</i>
   <i name="AEXX">      0.00000000</i>
   <i name="HFALPHA">      0.00000000</i>
   <i name="MCALPHA">      0.00000000</i>
   <i name="ALDAX">      1.00000000</i>
   <i name="AGGAX">      1.00000000</i>
   <i name="ALDAC">      1.00000000</i>
   <i name="AGGAC">      1.00000000</i>
   <i type="int" name="NKREDX">     1</i>
   <i type="int" name="NKREDY">     1</i>
   <i type="int" name="NKREDZ">     1</i>
   <i type="logical" name="SHIFTRED"> F  </i>
   <i type="logical" name="ODDONLY"> F  </i>
   <i type="logical" name="EVENONLY"> F  </i>
   <i type="int" name="LMAXFOCK">     0</i>
   <i type="int" name="NMAXFOCKAE">     0</i>
   <i type="logical" name="LFOCKAEDFT"> F  </i>
   <i name="HFSCREEN">      0.00000000</i>
   <i name="HFSCREENC">      0.00000000</i>
   <i type="int" name="NBANDSGWLOW">     0</i>
  </separator>
  <separator name="vdW DFT" >
   <i type="logical" name="LUSE_VDW"> F  </i>
   <i name="Zab_VDW">     -0.84910000</i>
   <i name="PARAM1">      0.12340000</i>
   <i name="PARAM2">      1.00000000</i>
   <i name="PARAM3">      0.00000000</i>
  </separator>
  <separator name="model GW" >
   <i type="int" name="MODEL_GW">     0</i>
   <i name="MODEL_EPS0">     11.77228070</i>
   <i name="MODEL_ALPHA">      1.00000000</i>
  </separator>
  <separator name="linear response parameters" >
   <i type="logical" name="LEPSILON"> F  </i>
   <i type="logical" name="LRPA"> F  </i>
   <i type="logical" name="LNABLA"> F  </i>
   <i type="logical" name="LVEL"> F  </i>
   <i type="int" name="KINTER">     0</i>
   <i name="CSHIFT">      0.10000000</i>
   <i name="OMEGAMAX">     -1.00000000</i>
   <i name="DEG_THRESHOLD">      0.00200000</i>
   <i name="RTIME">     -0.10000000</i>
   <i name="WPLASMAI">      0.00000000</i>
   <v name="DFIELD">      0.00000000      0.00000000      0.00000000</v>
   <v name="WPLASMA">      0.00000000      0.00000000      0.00000000      0.00000000      0.00000000      0.00000000      0.00000000      0.00000000      0.00000000</v>
  </separator>
  <separator name="orbital magnetization" >
   <i type="logical" name="NUCIND"> F  </i>
   <v name="MAGPOS">      0.00000000      0.00000000      0.00000000</v>
   <i type="logical" name="LNICSALL"> T  </i>
   <i type="logical" name="ORBITALMAG"> F  </i>
   <i type="logical" name="LMAGBLOCH"> F  </i>
   <i type="logical" name="LCHIMAG"> F  </i>
   <i type="logical" name="LGAUGE"> T  </i>
   <i type="int" name="MAGATOM">     0</i>
   <v name="MAGDIPOL">      0.00000000      0.00000000      0.00000000</v>
   <v name="AVECCONST">      0.00000000      0.00000000      0.00000000</v>
  </separator>
  <separator name="response functions" >
   <i type="logical" name="LADDER"> F  </i>
   <i type="logical" name="LRPAFORCE"> F  </i>
   <i type="logical" name="LFXC"> F  </i>
   <i type="logical" name="LHARTREE"> T  </i>
   <i type="int" name="IBSE">     0</i>
   <v type="int" name="KPOINT">    -1     0     0     0</v>
   <i type="logical" name="LTCTE"> F  </i>
   <i type="logical" name="LTETE"> F  </i>
   <i type="logical" name="LTRIPLET"> F  </i>
   <i type="logical" name="LFXCEPS"> F  </i>
   <i type="logical" name="LFXHEG"> F  </i>
   <i type="int" name="NATURALO">     2</i>
   <i type="logical" name="L2ORDER"> F  </i>
   <i type="logical" name="LMP2LT"> F  </i>
   <i type="logical" name="LUSEW"> F  </i>
   <i name="ENCUTGW">     -2.00000000</i>
   <i name="ENCUTGWSOFT">     -2.00000000</i>
   <i name="ENCUTLF">     -1.00000000</i>
   <i type="int" name="LMAXMP2">    -1</i>
   <i name="SCISSOR">      0.00000000</i>
   <i type="int" name="NOMEGA">     0</i>
   <i type="int" name="NOMEGAR">     0</i>
   <i type="int" name="NBANDSGW">    -1</i>
   <i type="int" name="NBANDSO">    -1</i>
   <i type="int" name="NBANDSV">    -1</i>
   <i type="int" name="NELM">     1</i>
   <i type="int" name="NELMHF">     1</i>
   <i type="int" name="DIM">     3</i>
   <i type="int" name="ANTIRES">     0</i>
   <i name="OMEGAMAX">    -30.00000000</i>
   <i name="OMEGAMIN">    -30.00000000</i>
   <i name="OMEGATL">   -200.00000000</i>
   <i type="int" name="OMEGAGRID">   140</i>
   <i name="CSHIFT">     -0.10000000</i>
   <i type="logical" name="SELFENERGY"> F  </i>
   <i type="logical" name="LSPECTRAL"> F  </i>
   <i type="logical" name="LSPECTRALGW"> F  </i>
   <i type="logical" name="LSINGLES"> F  </i>
   <i type="logical" name="LFERMIGW"> F  </i>
   <i type="logical" name="ODDONLYGW"> F  </i>
   <i type="logical" name="EVENONLYGW"> F  </i>
   <i type="int" name="NKREDLFX">     1</i>
   <i type="int" name="NKREDLFY">     1</i>
   <i type="int" name="NKREDLFZ">     1</i>
   <i type="int" name="MAXMEM">  2800</i>
   <i type="int" name="TELESCOPE">     0</i>
   <i type="int" name="TAUPAR">     1</i>
   <i type="int" name="OMEGAPAR">    -1</i>
   <i name="LAMBDA">      1.00000000</i>
  </separator>
  <separator name="External order field" >
   <i name="OFIELD_KAPPA">      0.00000000</i>
   <v name="OFIELD_K">      0.00000000      0.00000000      0.00000000</v>
   <i name="OFIELD_Q6_NEAR">      0.00000000</i>
   <i name="OFIELD_Q6_FAR">      0.00000000</i>
   <i name="OFIELD_A">      0.00000000</i>
  </separator>
 </parameters>
 <atominfo>
  <atoms>      61 </atoms>
  <types>       5 </types>
  <array name="atoms" >
   <dimension dim="1">ion</dimension>
   <field type="string">element</field>
   <field type="int">atomtype</field>
   <set>
    <rc><c>Li</c><c>   1</c></rc>
    <rc><c>Li</c><c>   1</c></rc>
    <rc><c>Li</c><c>   1</c></rc>
    <rc><c>Li</c><c>   1</c></rc>
    <rc><c>Li</c><c>   1</c></rc>
    <rc><c>Li</c><c>   1</c></rc>
    <rc><c>Li</c><c>   1</c></rc>
    <rc><c>Li</c><c>   1</c></rc>
    <rc><c>Li</c><c>   1</c></rc>
    <rc><c>Li</c><c>   1</c></rc>
    <rc><c>Mg</c><c>   2</c></rc>
    <rc><c>Mg</c><c>   2</c></rc>
    <rc><c>Mg</c><c>   2</c></rc>
    <rc><c>Bi</c><c>   3</c></rc>
    <rc><c>Bi</c><c>   3</c></rc>
    <rc><c>Bi</c><c>   3</c></rc>
    <rc><c>Bi</c><c>   3</c></rc>
    <rc><c>Bi</c><c>   3</c></rc>
    <rc><c>Bi</c><c>   3</c></rc>
    <rc><c>Bi</c><c>   3</c></rc>
    <rc><c>Bi</c><c>   3</c></rc>
    <rc><c>Bi</c><c>   3</c></rc>
    <rc><c>Bi</c><c>   3</c></rc>
    <rc><c>Bi</c><c>   3</c></rc>
    <rc><c>Bi</c><c>   3</c></rc>
    <rc><c>Bi</c><c>   3</c></rc>
    <rc><c>Bi</c><c>   3</c></rc>
    <rc><c>Bi</c><c>   3</c></rc>
    <rc><c>Bi</c><c>   3</c></rc>
    <rc><c>S </c><c>   4</c></rc>
    <rc><c>S </c><c>   4</c></rc>
    <rc><c>S </c><c>   4</c></rc>
    <rc><c>S </c><c>   4</c></rc>
    <rc><c>S </c><c>   4</c></rc>
    <rc><c>S </c><c>   4</c></rc>
    <rc><c>S </c><c>   4</c></rc>
    <rc><c>S </c><c>   4</c></rc>
    <rc><c>S </c><c>   4</c></rc>
    <rc><c>S </c><c>   4</c></rc>
    <rc><c>S </c><c>   4</c></rc>
    <rc><c>S </c><c>   4</c></rc>
    <rc><c>S </c><c>   4</c></rc>
    <rc><c>S </c><c>   4</c></rc>
    <rc><c>S </c><c>   4</c></rc>
    <rc><c>S </c><c>   4</c></rc>
    <rc><c>O </c><c>   5</c></rc>
    <rc><c>O </c><c>   5</c></rc>
    <rc><c>O </c><c>   5</c></rc>
    <rc><c>O </c><c>   5</c></rc>
    <rc><c>O </c><c>   5</c></rc>
    <rc><c>O </c><c>   5</c></rc>
    <rc><c>O </c><c>   5</c></rc>
    <rc><c>O </c><c>   5</c></rc>
    <rc><c>O </c><c>   5</c></rc>
    <rc><c>O </c><c>   5</c></rc>
    <rc><c>O </c><c>   5</c></rc>
    <rc><c>O </c><c>   5</c></rc>
    <rc><c>O </c><c>   5</c></rc>
    <rc><c>O </c><c>   5</c></rc>
    <rc><c>O </c><c>   5</c></rc>
    <rc><c>O </c><c>   5</c></rc>
   </set>
  </array>
  <array name="atomtypes" >
   <dimension dim="1">type</dimension>
   <field type="int">atomspertype</field>
   <field type="string">element</field>
   <field>mass</field>
   <field>valence</field>
   <field type="string">pseudopotential</field>
   <set>
    <rc><c>  10</c><c>Li</c><c>      7.01000000</c><c>      3.00000000</c><c>  PAW_PBE Li_sv 10Sep2004               </c></rc>
    <rc><c>   3</c><c>Mg</c><c>     24.30500000</c><c>      2.00000000</c><c>  PAW_PBE Mg 13Apr2007                  </c></rc>
    <rc><c>  16</c><c>Bi</c><c>    208.98000000</c><c>     15.00000000</c><c>  PAW_PBE Bi_d 06Sep2000                </c></rc>
    <rc><c>  16</c><c>S </c><c>     32.06600000</c><c>      6.00000000</c><c>  PAW_PBE S 06Sep2000                   </c></rc>
    <rc><c>  16</c><c>O </c><c>     16.00000000</c><c>      6.00000000</c><c>  PAW_PBE O 08Apr2002                   </c></rc>
   </set>
  </array>
 </atominfo>
 <structure name="initialpos" >
  <crystal>
   <varray name="basis" >
    <v>      11.17850000       0.00000000       0.00000000 </v>
    <v>       0.00000000       9.57460000       0.00000000 </v>
    <v>       0.00000000       0.00000000      11.18240000 </v>
   </varray>
   <i name="volume">   1196.84853820 </i>
   <varray name="rec_basis" >
    <v>       0.08945744       0.00000000       0.00000000 </v>
    <v>       0.00000000       0.10444301       0.00000000 </v>
    <v>       0.00000000       0.00000000       0.08942624 </v>
   </varray>
  </crystal>
  <varray name="positions" >
   <v>       0.12461000       0.99984000       0.18687000 </v>
   <v>       0.37461000       0.00017000       0.18687000 </v>
   <v>       0.87539000       0.00017000       0.43687000 </v>
   <v>       0.62461000       0.99984000       0.18687000 </v>
   <v>       0.87461000       0.00017000       0.18687000 </v>
   <v>       0.12539000       0.99984000       0.93687000 </v>
   <v>       0.37461000       0.00017000       0.68687000 </v>
   <v>       0.62539000       0.99984000       0.93687000 </v>
   <v>       0.62461000       0.99984000       0.68687000 </v>
   <v>       0.87461000       0.00017000       0.68687000 </v>
   <v>       0.62539000       0.99984000       0.43687000 </v>
   <v>       0.37539000       0.00017000       0.93687000 </v>
   <v>       0.87539000       0.00017000       0.93687000 </v>
   <v>       0.00013000       0.29519000       0.06281000 </v>
   <v>       0.25013000       0.70481000       0.06281000 </v>
   <v>       0.24987000       0.29519000       0.31282000 </v>
   <v>       0.49987000       0.70481000       0.31282000 </v>
   <v>       0.50013000       0.29519000       0.06281000 </v>
   <v>       0.75013000       0.70481000       0.06281000 </v>
   <v>       0.74987000       0.29519000       0.31282000 </v>
   <v>       0.99987000       0.70481000       0.31282000 </v>
   <v>       0.00013000       0.29519000       0.56281000 </v>
   <v>       0.25013000       0.70481000       0.56281000 </v>
   <v>       0.24987000       0.29519000       0.81282000 </v>
   <v>       0.49987000       0.70481000       0.81282000 </v>
   <v>       0.50013000       0.29519000       0.56281000 </v>
   <v>       0.75013000       0.70481000       0.56281000 </v>
   <v>       0.74987000       0.29519000       0.81282000 </v>
   <v>       0.99987000       0.70481000       0.81282000 </v>
   <v>       0.25005000       0.32677000       0.06286000 </v>
   <v>       0.00005000       0.67323000       0.06286000 </v>
   <v>       0.49995000       0.32677000       0.31286000 </v>
   <v>       0.24995000       0.67323000       0.31286000 </v>
   <v>       0.75005000       0.32677000       0.06286000 </v>
   <v>       0.50005000       0.67323000       0.06286000 </v>
   <v>       0.99995000       0.32677000       0.31286000 </v>
   <v>       0.74995000       0.67323000       0.31286000 </v>
   <v>       0.25005000       0.32677000       0.56286000 </v>
   <v>       0.00005000       0.67323000       0.56286000 </v>
   <v>       0.49995000       0.32677000       0.81286000 </v>
   <v>       0.24995000       0.67323000       0.81286000 </v>
   <v>       0.75005000       0.32677000       0.56286000 </v>
   <v>       0.50005000       0.67323000       0.56286000 </v>
   <v>       0.99995000       0.32677000       0.81286000 </v>
   <v>       0.74995000       0.67323000       0.81286000 </v>
   <v>       0.49987000       0.07798000       0.06246000 </v>
   <v>       0.24987000       0.92202000       0.06246000 </v>
   <v>       0.25013000       0.07798000       0.31246000 </v>
   <v>       0.00013000       0.92202000       0.31246000 </v>
   <v>       0.99987000       0.07798000       0.06246000 </v>
   <v>       0.74987000       0.92202000       0.06246000 </v>
   <v>       0.75013000       0.07798000       0.31246000 </v>
   <v>       0.50013000       0.92202000       0.31246000 </v>
   <v>       0.49987000       0.07798000       0.56246000 </v>
   <v>       0.24987000       0.92202000       0.56246000 </v>
   <v>       0.25013000       0.07798000       0.81246000 </v>
   <v>       0.00013000       0.92202000       0.81246000 </v>
   <v>       0.99987000       0.07798000       0.56246000 </v>
   <v>       0.74987000       0.92202000       0.56246000 </v>
   <v>       0.75013000       0.07798000       0.81246000 </v>
   <v>       0.50013000       0.92202000       0.81246000 </v>
  </varray>
 </structure>
 <calculation>
  <scstep>
   <time name="dav">   59.52   59.60</time>
   <time name="total">   59.60   59.68</time>
   <energy>
    <i name="alphaZ">   1073.51873187 </i>
    <i name="ewald"> -30864.07357568 </i>
    <i name="hartreedc"> -12723.22705747 </i>
    <i name="XCdc">   1395.10438267 </i>
    <i name="pawpsdc">  36823.70205594 </i>
    <i name="pawaedc"> -36326.52930246 </i>
    <i name="eentropy">      0.00000000 </i>
    <i name="bandstr">   1806.80716260 </i>
    <i name="atom">  44791.06186932 </i>
    <i name="e_fr_energy">   5976.36426681 </i>
    <i name="e_wo_entrp">   5976.36426681 </i>
    <i name="e_0_energy">   5976.36426681 </i>
   </energy>
  </scstep>
  <scstep>
   <time name="dav">   60.09   60.26</time>
   <time name="total">   60.10   60.27</time>
   <energy>
    <i name="e_fr_energy">    806.56704970 </i>
    <i name="e_wo_entrp">    806.56704970 </i>
    <i name="e_0_energy">    806.56704970 </i>
   </energy>
  </scstep>
  <scstep>
   <time name="dav">   68.04   68.18</time>
   <time name="total">   68.04   68.19</time>
   <energy>
    <i name="e_fr_energy">   -237.78870194 </i>
    <i name="e_wo_entrp">   -237.78870194 </i>
    <i name="e_0_energy">   -237.78870194 </i>
   </energy>
  </scstep>
  <scstep>
   <time name="dav">   71.80   71.86</time>
   <time name="total">   71.81   71.87</time>
   <energy>
    <i name="e_fr_energy">   -344.22444597 </i>
    <i name="e_wo_entrp">   -344.22444597 </i>
    <i name="e_0_energy">   -344.22444597 </i>
   </energy>
  </scstep>
  <scstep>
   <time name="dav">   95.60   95.84</time>
   <time name="total">   96.34   96.59</time>
   <energy>
    <i name="e_fr_energy">   -352.88611508 </i>
    <i name="e_wo_entrp">   -352.88611508 </i>
    <i name="e_0_energy">   -352.88611508 </i>
   </energy>
  </scstep>
  <scstep>
   <time name="dav">   83.50   83.53</time>
   <time name="total">   84.30   84.34</time>
   <energy>
    <i name="e_fr_energy">   -294.56374458 </i>
    <i name="e_wo_entrp">   -294.56374458 </i>
    <i name="e_0_energy">   -294.56374458 </i>
   </energy>
  </scstep>
  <scstep>
   <time name="dav">   64.68   64.84</time>
   <time name="total">   65.40   65.66</time>
   <energy>
    <i name="e_fr_energy">   -297.27938198 </i>
    <i name="e_wo_entrp">   -297.27938198 </i>
    <i name="e_0_energy">   -297.27938198 </i>
   </energy>
  </scstep>
  <scstep>
   <time name="dav">   84.67   84.82</time>
   <time name="total">   85.46   85.61</time>
   <energy>
    <i name="e_fr_energy">   -295.79807771 </i>
    <i name="e_wo_entrp">   -295.79807771 </i>
    <i name="e_0_energy">   -295.79807771 </i>
   </energy>
  </scstep>
  <scstep>
   <time name="dav">   66.24   66.50</time>
   <time name="total">   67.03   67.30</time>
   <energy>
    <i name="e_fr_energy">   -295.10156098 </i>
    <i name="e_wo_entrp">   -295.10156098 </i>
    <i name="e_0_energy">   -295.10156098 </i>
   </energy>
  </scstep>
  <scstep>
   <time name="dav">   80.29   81.08</time>
   <time name="total">   81.08   81.87</time>
   <energy>
    <i name="e_fr_energy">   -295.01159501 </i>
    <i name="e_wo_entrp">   -295.01159501 </i>
    <i name="e_0_energy">   -295.01159501 </i>
   </energy>
  </scstep>
  <scstep>
   <time name="dav">   71.82   72.58</time>
   <time name="total">   72.61   73.38</time>
   <energy>
    <i name="e_fr_energy">   -294.98852839 </i>
    <i name="e_wo_entrp">   -294.98852839 </i>
    <i name="e_0_energy">   -294.98852839 </i>
   </energy>
  </scstep>
  <scstep>
   <time name="dav">   77.49   77.96</time>
   <time name="total">   78.30   78.77</time>
   <energy>
    <i name="e_fr_energy">   -294.98896487 </i>
    <i name="e_wo_entrp">   -294.98896487 </i>
    <i name="e_0_energy">   -294.98896487 </i>
   </energy>
  </scstep>
  <scstep>
   <time name="dav">   81.33   81.34</time>
   <time name="total">   82.14   82.16</time>
   <energy>
    <i name="e_fr_energy">   -294.99291080 </i>
    <i name="e_wo_entrp">   -294.99291080 </i>
    <i name="e_0_energy">   -294.99291080 </i>
   </energy>
  </scstep>
  <scstep>
   <time name="dav">   77.80   77.99</time>
   <time name="total">   78.60   78.78</time>
   <energy>
    <i name="e_fr_energy">   -294.99246548 </i>
    <i name="e_wo_entrp">   -294.99246548 </i>
    <i name="e_0_energy">   -294.99246548 </i>
   </energy>
  </scstep>
  <scstep>
   <time name="dav">   67.77   67.88</time>
   <time name="total">   68.57   68.68</time>
   <energy>
    <i name="e_fr_energy">   -294.99268967 </i>
    <i name="e_wo_entrp">   -294.99268967 </i>
    <i name="e_0_energy">   -294.99268967 </i>
   </energy>
  </scstep>
  <scstep>
   <time name="dav">   80.34   80.53</time>
   <time name="total">   81.14   81.32</time>
   <energy>
    <i name="e_fr_energy">   -294.99274906 </i>
    <i name="e_wo_entrp">   -294.99274906 </i>
    <i name="e_0_energy">   -294.99274906 </i>
   </energy>
  </scstep>
  <scstep>
   <time name="dav">   72.40   72.49</time>
   <time name="total">   73.19   73.29</time>
   <energy>
    <i name="e_fr_energy">   -294.99274373 </i>
    <i name="e_wo_entrp">   -294.99274373 </i>
    <i name="e_0_energy">   -294.99274373 </i>
   </energy>
  </scstep>
  <scstep>
   <time name="dav">   67.94   68.01</time>
   <time name="total">   68.74   68.81</time>
   <energy>
    <i name="e_fr_energy">   -294.99274985 </i>
    <i name="e_wo_entrp">   -294.99274985 </i>
    <i name="e_0_energy">   -294.99274985 </i>
   </energy>
  </scstep>
  <scstep>
   <time name="dav">   59.40   59.45</time>
   <time name="total">   60.20   60.25</time>
   <energy>
    <i name="e_fr_energy">   -294.99275198 </i>
    <i name="e_wo_entrp">   -294.99275198 </i>
    <i name="e_0_energy">   -294.99275198 </i>
   </energy>
  </scstep>
  <scstep>
   <time name="dav">   56.03   56.13</time>
   <time name="total">   56.11   56.21</time>
   <energy>
    <i name="alphaZ">   1073.51873187 </i>
    <i name="ewald"> -30864.07357568 </i>
    <i name="hartreedc"> -12948.57885778 </i>
    <i name="XCdc">   1418.24595154 </i>
    <i name="pawpsdc">  43864.30555495 </i>
    <i name="pawaedc"> -43342.45827951 </i>
    <i name="eentropy">      0.00000000 </i>
    <i name="bandstr">  -4287.01414702 </i>
    <i name="atom">  44791.06186932 </i>
    <i name="e_fr_energy">   -294.99275232 </i>
    <i name="e_wo_entrp">   -294.99275232 </i>
    <i name="e_0_energy">   -294.99275232 </i>
   </energy>
  </scstep>
  <structure>
   <crystal>
    <varray name="basis" >
     <v>      11.17850000       0.00000000       0.00000000 </v>
     <v>       0.00000000       9.57460000       0.00000000 </v>
     <v>       0.00000000       0.00000000      11.18240000 </v>
    </varray>
    <i name="volume">   1196.84853820 </i>
    <varray name="rec_basis" >
     <v>       0.08945744       0.00000000       0.00000000 </v>
     <v>       0.00000000       0.10444301       0.00000000 </v>
     <v>       0.00000000       0.00000000       0.08942624 </v>
    </varray>
   </crystal>
   <varray name="positions" >
    <v>       0.12461000       0.99984000       0.18687000 </v>
    <v>       0.37461000       0.00017000       0.18687000 </v>
    <v>       0.87539000       0.00017000       0.43687000 </v>
    <v>       0.62461000       0.99984000       0.18687000 </v>
    <v>       0.87461000       0.00017000       0.18687000 </v>
    <v>       0.12539000       0.99984000       0.93687000 </v>
    <v>       0.37461000       0.00017000       0.68687000 </v>
    <v>       0.62539000       0.99984000       0.93687000 </v>
    <v>       0.62461000       0.99984000       0.68687000 </v>
    <v>       0.87461000       0.00017000       0.68687000 </v>
    <v>       0.62539000       0.99984000       0.43687000 </v>
    <v>       0.37539000       0.00017000       0.93687000 </v>
    <v>       0.87539000       0.00017000       0.93687000 </v>
    <v>       0.00013000       0.29519000       0.06281000 </v>
    <v>       0.25013000       0.70481000       0.06281000 </v>
    <v>       0.24987000       0.29519000       0.31282000 </v>
    <v>       0.49987000       0.70481000       0.31282000 </v>
    <v>       0.50013000       0.29519000       0.06281000 </v>
    <v>       0.75013000       0.70481000       0.06281000 </v>
    <v>       0.74987000       0.29519000       0.31282000 </v>
    <v>       0.99987000       0.70481000       0.31282000 </v>
    <v>       0.00013000       0.29519000       0.56281000 </v>
    <v>       0.25013000       0.70481000       0.56281000 </v>
    <v>       0.24987000       0.29519000       0.81282000 </v>
    <v>       0.49987000       0.70481000       0.81282000 </v>
    <v>       0.50013000       0.29519000       0.56281000 </v>
    <v>       0.75013000       0.70481000       0.56281000 </v>
    <v>       0.74987000       0.29519000       0.81282000 </v>
    <v>       0.99987000       0.70481000       0.81282000 </v>
    <v>       0.25005000       0.32677000       0.06286000 </v>
    <v>       0.00005000       0.67323000       0.06286000 </v>
    <v>       0.49995000       0.32677000       0.31286000 </v>
    <v>       0.24995000       0.67323000       0.31286000 </v>
    <v>       0.75005000       0.32677000       0.06286000 </v>
    <v>       0.50005000       0.67323000       0.06286000 </v>
    <v>       0.99995000       0.32677000       0.31286000 </v>
    <v>       0.74995000       0.67323000       0.31286000 </v>
    <v>       0.25005000       0.32677000       0.56286000 </v>
    <v>       0.00005000       0.67323000       0.56286000 </v>
    <v>       0.49995000       0.32677000       0.81286000 </v>
    <v>       0.24995000       0.67323000       0.81286000 </v>
    <v>       0.75005000       0.32677000       0.56286000 </v>
    <v>       0.50005000       0.67323000       0.56286000 </v>
    <v>       0.99995000       0.32677000       0.81286000 </v>
    <v>       0.74995000       0.67323000       0.81286000 </v>
    <v>       0.49987000       0.07798000       0.06246000 </v>
    <v>       0.24987000       0.92202000       0.06246000 </v>
    <v>       0.25013000       0.07798000       0.31246000 </v>
    <v>       0.00013000       0.92202000       0.31246000 </v>
    <v>       0.99987000       0.07798000       0.06246000 </v>
    <v>       0.74987000       0.92202000       0.06246000 </v>
    <v>       0.75013000       0.07798000       0.31246000 </v>
    <v>       0.50013000       0.92202000       0.31246000 </v>
    <v>       0.49987000       0.07798000       0.56246000 </v>
    <v>       0.24987000       0.92202000       0.56246000 </v>
    <v>       0.25013000       0.07798000       0.81246000 </v>
    <v>       0.00013000       0.92202000       0.81246000 </v>
    <v>       0.99987000       0.07798000       0.56246000 </v>
    <v>       0.74987000       0.92202000       0.56246000 </v>
    <v>       0.75013000       0.07798000       0.81246000 </v>
    <v>       0.50013000       0.92202000       0.81246000 </v>
   </varray>
  </structure>
  <varray name="forces" >
   <v>       0.18796173       0.04572728       0.89805491 </v>
   <v>      -0.31238988       0.10604590       1.15034712 </v>
   <v>       1.20466482       0.04466887       0.18759990 </v>
   <v>      -0.19066534      -0.06410791      -0.04537857 </v>
   <v>       0.33710529      -0.12425495       0.66445068 </v>
   <v>       0.02126513      -0.00434131      -0.52193078 </v>
   <v>      -0.77066701      -0.08122024      -1.09953288 </v>
   <v>      -0.03233290      -0.00325909      -0.01655500 </v>
   <v>      -0.18851923       0.05798661       0.04933115 </v>
   <v>       0.82161204       0.10662983      -0.63903894 </v>
   <v>      -1.06942981      -0.00202623       0.09559309 </v>
   <v>      -0.43850846       0.09569894      -0.23115201 </v>
   <v>       0.38736141      -0.11862508      -0.24025695 </v>
   <v>       0.34044902       1.10142543       0.32402039 </v>
   <v>      -0.20539209      -1.12602004       0.35778048 </v>
   <v>      -0.16771775      -1.91486179       0.62562924 </v>
   <v>      -0.63789039      -0.05245793       0.35674149 </v>
   <v>      -0.23329528       1.10132262       0.28447075 </v>
   <v>       0.07819629      -1.11659079       0.23018587 </v>
   <v>       0.32512832       1.09602032       0.19932763 </v>
   <v>       0.51304994       0.96540450       0.50390661 </v>
   <v>       0.61642030      -1.90449223      -0.19396571 </v>
   <v>      -0.31767563       2.64262850      -0.32551544 </v>
   <v>      -0.34690555       0.13766682      -0.68890475 </v>
   <v>      -0.26467718      -1.10604456      -0.42942849 </v>
   <v>      -0.68609430       0.07383429      -0.23450192 </v>
   <v>       0.34899059      -1.12599451      -0.06522855 </v>
   <v>       0.13171963       1.11100509      -0.38047868 </v>
   <v>       0.49436305      -0.11420565      -0.64692706 </v>
   <v>       0.14216626       0.14646899      -0.31376248 </v>
   <v>      -0.21680645      -0.10672744      -0.20010898 </v>
   <v>       0.45981570       0.10486967      -0.21186307 </v>
   <v>       0.17882387      -0.18734658      -0.57637241 </v>
   <v>      -0.02240906      -0.02607827      -0.11896104 </v>
   <v>       0.10248042      -0.01856120      -0.18820506 </v>
   <v>      -0.45733564       0.20484710      -0.46121939 </v>
   <v>      -0.18830169      -0.10991737      -0.12030523 </v>
   <v>       0.31306407       0.20369098       0.32731162 </v>
   <v>      -0.57186528      -0.18694243       0.18934978 </v>
   <v>       0.17046818       0.06353442       0.26341725 </v>
   <v>       0.24003049      -0.11105883       0.55581535 </v>
   <v>      -0.29968235       0.14799645       0.04779539 </v>
   <v>       0.55616163      -0.12288481       0.14510045 </v>
   <v>      -0.30580219       0.08950410       0.46071743 </v>
   <v>      -0.09369243      -0.02573745       0.19447254 </v>
   <v>      -0.29779785      -0.98574986      -0.63986292 </v>
   <v>       0.60112089       0.87651304      -0.70142652 </v>
   <v>       0.10640131       1.53179826      -1.44478945 </v>
   <v>      -0.90992598      -0.76335664      -0.89941938 </v>
   <v>      -0.65960889      -0.88652676      -0.63033606 </v>
   <v>       0.40030623       1.05914180      -0.57668376 </v>
   <v>      -0.60966359      -0.87209146       0.31367668 </v>
   <v>       1.39171282       0.07201398      -0.32370979 </v>
   <v>       1.45794277      -0.06229986       0.23463607 </v>
   <v>       0.67283783      -2.23555216       0.67607404 </v>
   <v>       1.20724840      -0.18336769       1.40862210 </v>
   <v>      -1.27123979       0.20381160       1.36074276 </v>
   <v>      -1.44316968       1.52601363       0.11915366 </v>
   <v>      -0.66817889       0.86722819      -0.42024666 </v>
   <v>       0.29919374      -0.97443422       0.64978487 </v>
   <v>      -0.23042163       0.93363813       0.71195865 </v>
  </varray>
  <varray name="stress" >
   <v>      -5.56306404      -0.13652935      -0.37133122 </v>
   <v>      -0.13652930     -12.29637770      -0.11305990 </v>
   <v>      -0.37133080      -0.11305997      -4.81030904 </v>
  </varray>
  <energy>
   <i name="e_fr_energy">   -309.66065817 </i>
   <i name="e_wo_entrp">   -309.66065817 </i>
   <i name="e_0_energy">      0.00000000 </i>
  </energy>
  <time name="totalsc"> 1574.12 1579.53</time>
 </calculation>
 <calculation>
  <scstep>
   <time name="dav">   61.69   61.95</time>
   <time name="total">   62.48   62.74</time>
   <energy>
    <i name="alphaZ">   1088.03224507 </i>
    <i name="ewald"> -31010.87972942 </i>
    <i name="hartreedc"> -12987.86766164 </i>
    <i name="XCdc">   1426.17490412 </i>
    <i name="pawpsdc">  43864.36740437 </i>
    <i name="pawaedc"> -43342.52040902 </i>
    <i name="eentropy">      0.00000000 </i>
    <i name="bandstr">  -4121.89824023 </i>
    <i name="atom">  44791.06186932 </i>
    <i name="e_fr_energy">   -293.52961743 </i>
    <i name="e_wo_entrp">   -293.52961743 </i>
    <i name="e_0_energy">   -293.52961743 </i>
   </energy>
  </scstep>
  <scstep>
   <time name="dav">   71.21   71.83</time>
   <time name="total">   72.00   72.63</time>
   <energy>
    <i name="e_fr_energy">   -296.94700353 </i>
    <i name="e_wo_entrp">   -296.94700353 </i>
    <i name="e_0_energy">   -296.94700353 </i>
   </energy>
  </scstep>
  <scstep>
   <time name="dav">   89.20   90.09</time>
   <time name="total">   90.00   90.89</time>
   <energy>
    <i name="e_fr_energy">   -296.71102377 </i>
    <i name="e_wo_entrp">   -296.71102377 </i>
    <i name="e_0_energy">   -296.71102377 </i>
   </energy>
  </scstep>
  <scstep>
   <time name="dav">   76.73   76.74</time>
   <time name="total">   77.62   77.63</time>
   <energy>
    <i name="e_fr_energy">   -296.55790084 </i>
    <i name="e_wo_entrp">   -296.55790084 </i>
    <i name="e_0_energy">   -296.55790084 </i>
   </energy>
  </scstep>
  <scstep>
   <time name="dav">   77.46   77.47</time>
   <time name="total">   78.27   78.28</time>
   <energy>
    <i name="e_fr_energy">   -296.54364895 </i>
    <i name="e_wo_entrp">   -296.54364895 </i>
    <i name="e_0_energy">   -296.54364895 </i>
   </energy>
  </scstep>
  <scstep>
   <time name="dav">   67.96   67.97</time>
   <time name="total">   68.75   68.77</time>
   <energy>
    <i name="e_fr_energy">   -296.54093908 </i>
    <i name="e_wo_entrp">   -296.54093908 </i>
    <i name="e_0_energy">   -296.54093908 </i>
   </energy>
  </scstep>
  <scstep>
   <time name="dav">   94.95   95.42</time>
   <time name="total">   95.75   96.21</time>
   <energy>
    <i name="e_fr_energy">   -296.54003267 </i>
    <i name="e_wo_entrp">   -296.54003267 </i>
    <i name="e_0_energy">   -296.54003267 </i>
   </energy>
  </scstep>
  <scstep>
   <time name="dav">   75.06   75.48</time>
   <time name="total">   75.86   76.28</time>
   <energy>
    <i name="e_fr_energy">   -296.53973239 </i>
    <i name="e_wo_entrp">   -296.53973239 </i>
    <i name="e_0_energy">   -296.53973239 </i>
   </energy>
  </scstep>
  <scstep>
   <time name="dav">   80.87   80.99</time>
   <time name="total">   81.66   81.78</time>
   <energy>
    <i name="e_fr_energy">   -296.53977166 </i>
    <i name="e_wo_entrp">   -296.53977166 </i>
    <i name="e_0_energy">   -296.53977166 </i>
   </energy>
  </scstep>
  <scstep>
   <time name="dav">   74.80   74.93</time>
   <time name="total">   75.59   75.73</time>
   <energy>
    <i name="e_fr_energy">   -296.53978526 </i>
    <i name="e_wo_entrp">   -296.53978526 </i>
    <i name="e_0_energy">   -296.53978526 </i>
   </energy>
  </scstep>
  <scstep>
   <time name="dav">   70.83   71.02</time>
   <time name="total">   71.61   71.82</time>
   <energy>
    <i name="e_fr_energy">   -296.53979361 </i>
    <i name="e_wo_entrp">   -296.53979361 </i>
    <i name="e_0_energy">   -296.53979361 </i>
   </energy>
  </scstep>
  <scstep>
   <time name="dav">   71.35   71.99</time>
   <time name="total">   72.15   72.79</time>
   <energy>
    <i name="e_fr_energy">   -296.53979294 </i>
    <i name="e_wo_entrp">   -296.53979294 </i>
    <i name="e_0_energy">   -296.53979294 </i>
   </energy>
  </scstep>
  <scstep>
   <time name="dav">   59.63   59.82</time>
   <time name="total">   59.71   59.90</time>
   <energy>
    <i name="alphaZ">   1088.03224507 </i>
    <i name="ewald"> -31010.87972942 </i>
    <i name="hartreedc"> -12870.52045973 </i>
    <i name="XCdc">   1420.88097906 </i>
    <i name="pawpsdc">  44188.28015279 </i>
    <i name="pawaedc"> -43669.27710887 </i>
    <i name="eentropy">      0.00000000 </i>
    <i name="bandstr">  -4234.11774151 </i>
    <i name="atom">  44791.06186932 </i>
    <i name="e_fr_energy">   -296.53979330 </i>
    <i name="e_wo_entrp">   -296.53979330 </i>
    <i name="e_0_energy">   -296.53979330 </i>
   </energy>
  </scstep>
  <structure>
   <crystal>
    <varray name="basis" >
     <v>      11.14176098      -0.00090165      -0.00245231 </v>
     <v>      -0.00077228       9.50504509      -0.00063953 </v>
     <v>      -0.00245316      -0.00074692      11.15062117 </v>
    </varray>
    <i name="volume">   1180.88349935 </i>
    <varray name="rec_basis" >
     <v>       0.08975242       0.00000729       0.00001975 </v>
     <v>       0.00000852       0.10520729       0.00000705 </v>
     <v>       0.00001974       0.00000604       0.08968111 </v>
    </varray>
   </crystal>
   <varray name="positions" >
    <v>       0.12542118       0.00007040       0.19074435 </v>
    <v>       0.37326183       0.00070432       0.19183278 </v>
    <v>       0.88058893       0.00039507       0.43767934 </v>
    <v>       0.62378715       0.99951699       0.18667423 </v>
    <v>       0.87606483      -0.00045607       0.18973655 </v>
    <v>       0.12548177       0.99981813       0.93461831 </v>
    <v>       0.37128406      -0.00023924       0.68212644 </v>
    <v>       0.62525046       0.99982358       0.93679858 </v>
    <v>       0.62379641       0.00013217       0.68708282 </v>
    <v>       0.87815580       0.00070727       0.68411308 </v>
    <v>       0.62077470       0.99982979       0.43728240 </v>
    <v>       0.37349754       0.00065219       0.93587277 </v>
    <v>       0.87706172      -0.00042771       0.93583349 </v>
    <v>       0.00159926       0.30073965       0.06420788 </v>
    <v>       0.24924360       0.69913643       0.06435352 </v>
    <v>       0.24914619       0.28554176       0.31551906 </v>
    <v>       0.49711708       0.70454569       0.31435904 </v>
    <v>       0.49912318       0.30073913       0.06403725 </v>
    <v>       0.75046747       0.69918394       0.06380306 </v>
    <v>       0.75127314       0.30071242       0.31367993 </v>
    <v>       0.00208415       0.70967429       0.31499393 </v>
    <v>       0.00279026       0.28559401       0.56197320 </v>
    <v>       0.24875902       0.71812517       0.56140567 </v>
    <v>       0.24837287       0.29588365       0.80984796 </v>
    <v>       0.49872774       0.69923708       0.81096738 </v>
    <v>       0.49716905       0.29556202       0.56179832 </v>
    <v>       0.75163613       0.69913656       0.56252859 </v>
    <v>       0.75043846       0.30078792       0.81117855 </v>
    <v>       0.00200350       0.70423456       0.81002905 </v>
    <v>       0.25066354       0.32750800       0.06150638 </v>
    <v>      -0.00088566       0.67269224       0.06199670 </v>
    <v>       0.50193441       0.32729840       0.31194599 </v>
    <v>       0.25072174       0.67228603       0.31037344 </v>
    <v>       0.74995329       0.32663860       0.06234678 </v>
    <v>       0.50049227       0.67313648       0.06204805 </v>
    <v>       0.99797629       0.32780214       0.31087023 </v>
    <v>       0.74913735       0.67267617       0.31234098 </v>
    <v>       0.25140108       0.32779632       0.56427207 </v>
    <v>      -0.00241798       0.67228807       0.56367689 </v>
    <v>       0.50068568       0.32709013       0.81399642 </v>
    <v>       0.25098589       0.67267042       0.81525788 </v>
    <v>       0.74875667       0.32751570       0.56306620 </v>
    <v>       0.50245021       0.67261083       0.56348599 </v>
    <v>       0.99863026       0.32722098       0.81484761 </v>
    <v>       0.74954565       0.67310032       0.81369899 </v>
    <v>       0.49858480       0.07301319       0.05969953 </v>
    <v>       0.25246424       0.92643641       0.05943393 </v>
    <v>       0.25058919       0.08569813       0.30622695 </v>
    <v>      -0.00379694       0.91817375       0.30857976 </v>
    <v>       0.99702335       0.07351314       0.05974063 </v>
    <v>       0.75159759       0.92735660       0.05997209 </v>
    <v>       0.74749890       0.07358587       0.31381325 </v>
    <v>       0.50613617       0.92238285       0.31106346 </v>
    <v>       0.50616199       0.07766610       0.56347226 </v>
    <v>       0.25277374       0.91075593       0.56537669 </v>
    <v>       0.25534008       0.07705608       0.81853702 </v>
    <v>      -0.00535624       0.92304693       0.81833046 </v>
    <v>       0.99364176       0.08566898       0.56297405 </v>
    <v>       0.74698636       0.92638962       0.56064699 </v>
    <v>       0.75142122       0.07307021       0.81526328 </v>
    <v>       0.49913558       0.92672424       0.81553150 </v>
   </varray>
  </structure>
  <varray name="forces" >
   <v>       0.11848893       0.02073126       0.44517408 </v>
   <v>      -0.11632336       0.04147020       0.66547743 </v>
   <v>       0.60667707       0.01817325       0.11287718 </v>
   <v>      -0.04111757      -0.02843075      -0.15483007 </v>
   <v>       0.08690382      -0.05837269       0.33939174 </v>
   <v>       0.01057549      -0.00051345      -0.29398450 </v>
   <v>      -0.48343003      -0.02636143      -0.71927408 </v>
   <v>      -0.02023111       0.00120425       0.00226704 </v>
   <v>      -0.04716953       0.02699463       0.16114171 </v>
   <v>       0.43286845       0.03828813      -0.37433175 </v>
   <v>      -0.31849681       0.01004663       0.03161258 </v>
   <v>       0.12232338      -0.03878599       0.13522036 </v>
   <v>      -0.18089237       0.02600666       0.14446522 </v>
   <v>       0.10441065      -0.08701786       0.10195525 </v>
   <v>      -0.05847641       0.05198870       0.09230469 </v>
   <v>      -0.06046154       2.14439948       0.39812871 </v>
   <v>      -0.23651270      -0.17690416       0.13032022 </v>
   <v>      -0.10273603      -0.18010848       0.06669016 </v>
   <v>       0.03887164       0.23231762       0.09013485 </v>
   <v>       0.11978557      -0.11046174       0.08445980 </v>
   <v>       0.18909442      -0.88789793       0.20124687 </v>
   <v>       0.37604179       2.12428673      -0.06569117 </v>
   <v>      -0.26089508      -3.87732267      -0.25753613 </v>
   <v>      -0.13442583       0.05360924      -0.24039285 </v>
   <v>      -0.09360392       0.13339671      -0.14327827 </v>
   <v>      -0.23448404       0.19777530      -0.07522784 </v>
   <v>       0.09741209       0.07817945      -0.04264081 </v>
   <v>       0.03591495      -0.16602317      -0.15283431 </v>
   <v>       0.21216746      -0.02832751      -0.25059623 </v>
   <v>       0.08137761       0.26229785      -0.13637296 </v>
   <v>      -0.11098011      -0.22447995      -0.08726026 </v>
   <v>       0.19709323       0.12590000      -0.08184829 </v>
   <v>       0.09599385      -0.09031196      -0.35474031 </v>
   <v>       0.00759917       0.15052540      -0.05694993 </v>
   <v>       0.02417719      -0.16958446      -0.06717231 </v>
   <v>      -0.21657183       0.14441938      -0.23344318 </v>
   <v>      -0.07581334      -0.23169727      -0.05265072 </v>
   <v>       0.20107672       0.04975559       0.21195595 </v>
   <v>      -0.33881053      -0.09308221       0.11137325 </v>
   <v>       0.04359673       0.19513038       0.10431521 </v>
   <v>       0.12866648      -0.16871867       0.27856251 </v>
   <v>      -0.12901907       0.26918911       0.02116283 </v>
   <v>       0.27215394      -0.15790643       0.04982536 </v>
   <v>      -0.15794162       0.13423723       0.20698231 </v>
   <v>      -0.00659074      -0.17585513       0.09154668 </v>
   <v>      -0.22929175       0.41389915      -0.24304236 </v>
   <v>       0.21092305      -0.38314567      -0.20917058 </v>
   <v>       0.03016299      -2.47068815      -1.18734625 </v>
   <v>      -0.55103576       1.02082321      -0.57666060 </v>
   <v>      -0.18933206       0.39468912      -0.19750319 </v>
   <v>       0.25560873      -0.44153449      -0.25813116 </v>
   <v>      -0.31752790       0.36805795       0.25975074 </v>
   <v>       0.69787067       0.02624842      -0.28577428 </v>
   <v>       0.71691050      -0.02297959       0.26283689 </v>
   <v>       0.65279903       4.33711916       0.63984731 </v>
   <v>       0.55075589       0.14890368       0.57255030 </v>
   <v>      -0.55614287      -0.14684759       0.55743695 </v>
   <v>      -1.16152553      -2.43830034       0.03256321 </v>
   <v>      -0.29621940      -0.37115898      -0.26323987 </v>
   <v>       0.21512447       0.42376817       0.22623349 </v>
   <v>      -0.20736712      -0.41101335       0.23211337 </v>
  </varray>
  <varray name="stress" >
   <v>       6.19759005       0.13100937      -0.15079221 </v>
   <v>       0.13100940       9.17515251       0.95472491 </v>
   <v>      -0.15079214       0.95472482       5.47563087 </v>
  </varray>
  <energy>
   <i name="e_fr_energy">   -311.39335509 </i>
   <i name="e_wo_entrp">   -311.39335509 </i>
   <i name="e_0_energy">      0.00000000 </i>
  </energy>
  <time name="totalsc"> 1084.83 1089.96</time>
 </calculation>
 <calculation>
  <scstep>
   <time name="dav">   64.45   64.47</time>
   <time name="total">   65.24   65.26</time>
   <energy>
    <i name="alphaZ">   1085.53224335 </i>
    <i name="ewald"> -30990.40892161 </i>
    <i name="hartreedc"> -12859.94415823 </i>
    <i name="XCdc">   1419.45628063 </i>
    <i name="pawpsdc">  44188.37657771 </i>
    <i name="pawaedc"> -43669.37519721 </i>
    <i name="eentropy">      0.00000000 </i>
    <i name="bandstr">  -4261.27819851 </i>
    <i name="atom">  44791.06186932 </i>
    <i name="e_fr_energy">   -296.57950457 </i>
    <i name="e_wo_entrp">   -296.57950457 </i>
    <i name="e_0_energy">   -296.57950457 </i>
   </energy>
  </scstep>
  <scstep>
   <time name="dav">   63.13   63.71</time>
   <time name="total">   63.92   64.51</time>
   <energy>
    <i name="e_fr_energy">   -296.67255763 </i>
    <i name="e_wo_entrp">   -296.67255763 </i>
    <i name="e_0_energy">   -296.67255763 </i>
   </energy>
  </scstep>
  <scstep>
   <time name="dav">   85.79   86.30</time>
   <time name="total">   86.58   87.09</time>
   <energy>
    <i name="e_fr_energy">   -296.66841612 </i>
    <i name="e_wo_entrp">   -296.66841612 </i>
    <i name="e_0_energy">   -296.66841612 </i>
   </energy>
  </scstep>
  <scstep>
   <time name="dav">   75.90   76.24</time>
   <time name="total">   76.73   77.07</time>
   <energy>
    <i name="e_fr_energy">   -296.66434553 </i>
    <i name="e_wo_entrp">   -296.66434553 </i>
    <i name="e_0_energy">   -296.66434553 </i>
   </energy>
  </scstep>
  <scstep>
   <time name="dav">   74.14   74.42</time>
   <time name="total">   74.94   75.23</time>
   <energy>
    <i name="e_fr_energy">   -296.66409481 </i>
    <i name="e_wo_entrp">   -296.66409481 </i>
    <i name="e_0_energy">   -296.66409481 </i>
   </energy>
  </scstep>
  <scstep>
   <time name="dav">   82.54   83.13</time>
   <time name="total">   83.34   83.93</time>
   <energy>
    <i name="e_fr_energy">   -296.66401883 </i>
    <i name="e_wo_entrp">   -296.66401883 </i>
    <i name="e_0_energy">   -296.66401883 </i>
   </energy>
  </scstep>
  <scstep>
   <time name="dav">   74.09   74.40</time>
   <time name="total">   74.88   75.20</time>
   <energy>
    <i name="e_fr_energy">   -296.66397017 </i>
    <i name="e_wo_entrp">   -296.66397017 </i>
    <i name="e_0_energy">   -296.66397017 </i>
   </energy>
  </scstep>
  <scstep>
   <time name="dav">   75.37   75.64</time>
   <time name="total">   76.16   76.43</time>
   <energy>
    <i name="e_fr_energy">   -296.66395277 </i>
    <i name="e_wo_entrp">   -296.66395277 </i>
    <i name="e_0_energy">   -296.66395277 </i>
   </energy>
  </scstep>
  <scstep>
   <time name="dav">   80.08   80.70</time>
   <time name="total">   80.87   81.49</time>
   <energy>
    <i name="e_fr_energy">   -296.66395485 </i>
    <i name="e_wo_entrp">   -296.66395485 </i>
    <i name="e_0_energy">   -296.66395485 </i>
   </energy>
  </scstep>
  <scstep>
   <time name="dav">   57.33   57.51</time>
   <time name="total">   57.41   57.59</time>
   <energy>
    <i name="alphaZ">   1085.53224335 </i>
    <i name="ewald"> -30990.40892161 </i>
    <i name="hartreedc"> -12880.21642168 </i>
    <i name="XCdc">   1420.37802212 </i>
    <i name="pawpsdc">  44112.04757250 </i>
    <i name="pawaedc"> -43592.22117929 </i>
    <i name="eentropy">      0.00000000 </i>
    <i name="bandstr">  -4242.83714001 </i>
    <i name="atom">  44791.06186932 </i>
    <i name="e_fr_energy">   -296.66395530 </i>
    <i name="e_wo_entrp">   -296.66395530 </i>
    <i name="e_0_energy">   -296.66395530 </i>
   </energy>
  </scstep>
  <structure>
   <crystal>
    <varray name="basis" >
     <v>      11.14804031      -0.00074755      -0.00203317 </v>
     <v>      -0.00064029       9.51693323      -0.00053022 </v>
     <v>      -0.00203387      -0.00061926      11.15605272 </v>
    </varray>
    <i name="volume">   1183.60309686 </i>
    <varray name="rec_basis" >
     <v>       0.08970187       0.00000604       0.00001635 </v>
     <v>       0.00000705       0.10507587       0.00000583 </v>
     <v>       0.00001635       0.00000500       0.08963744 </v>
    </varray>
   </crystal>
   <varray name="positions" >
    <v>       0.12528193       0.00003067       0.19008024 </v>
    <v>       0.37349282       0.00061229       0.19098218 </v>
    <v>       0.87969738       0.00035622       0.43754041 </v>
    <v>       0.62392827       0.99957261       0.18670782 </v>
    <v>       0.87581526      -0.00034834       0.18924516 </v>
    <v>       0.12546612       0.99982192       0.93500425 </v>
    <v>       0.37185458      -0.00016866       0.68293964 </v>
    <v>       0.62527439       0.99982641       0.93681083 </v>
    <v>       0.62393592       0.00008188       0.68704637 </v>
    <v>       0.87754786       0.00061475       0.68458549 </v>
    <v>       0.62156612       0.99983162       0.43721189 </v>
    <v>       0.37382210       0.00056922       0.93604377 </v>
    <v>       0.87677510      -0.00032481       0.93601110 </v>
    <v>       0.00134719       0.29978414       0.06396816 </v>
    <v>       0.24939561       0.70011323       0.06408904 </v>
    <v>       0.24927032       0.28720286       0.31505656 </v>
    <v>       0.49758910       0.70459122       0.31409535 </v>
    <v>       0.49929571       0.29978375       0.06382688 </v>
    <v>       0.75040963       0.70015255       0.06363289 </v>
    <v>       0.75103243       0.29976160       0.31353243 </v>
    <v>       0.00170433       0.70883675       0.31462118 </v>
    <v>       0.00233422       0.28724610       0.56211663 </v>
    <v>       0.24899401       0.71583276       0.56164630 </v>
    <v>       0.24862970       0.29576429       0.81035743 </v>
    <v>       0.49892375       0.70019660       0.81128502 </v>
    <v>       0.49767683       0.29549803       0.56197184 </v>
    <v>       0.75137793       0.70011332       0.56257683 </v>
    <v>       0.75034097       0.29982415       0.81145983 </v>
    <v>       0.00163776       0.70433364       0.81050736 </v>
    <v>       0.25055837       0.32738095       0.06173836 </v>
    <v>      -0.00072518       0.67278485       0.06214471 </v>
    <v>       0.50159415       0.32720740       0.31210257 </v>
    <v>       0.25058951       0.67244858       0.31079963 </v>
    <v>       0.74996989       0.32666123       0.06243476 </v>
    <v>       0.50041646       0.67315258       0.06218721 </v>
    <v>       0.99831481       0.32762450       0.31121135 </v>
    <v>       0.74927673       0.67277154       0.31242998 </v>
    <v>       0.25116933       0.32761958       0.56402998 </v>
    <v>      -0.00199479       0.67245027       0.56353697 </v>
    <v>       0.50055948       0.32703498       0.81380160 </v>
    <v>       0.25080817       0.67276671       0.81484684 </v>
    <v>       0.74897844       0.32738733       0.56303090 </v>
    <v>       0.50203860       0.67271739       0.56337861 </v>
    <v>       0.99885649       0.32714333       0.81450697 </v>
    <v>       0.74961496       0.67312264       0.81355520 </v>
    <v>       0.49880535       0.07386838       0.06017278 </v>
    <v>       0.25201944       0.92567604       0.05995247 </v>
    <v>       0.25051059       0.08436939       0.30729523 </v>
    <v>      -0.00312335       0.91883606       0.30924504 </v>
    <v>       0.99751165       0.07428227       0.06020689 </v>
    <v>       0.75130137       0.92643781       0.06039841 </v>
    <v>       0.74795008       0.07434243       0.31358144 </v>
    <v>       0.50510627       0.92232030       0.31130261 </v>
    <v>       0.50508300       0.07772002       0.56329852 </v>
    <v>       0.25227583       0.91269516       0.56487676 </v>
    <v>       0.25444643       0.07721498       0.81749520 </v>
    <v>      -0.00441569       0.92287013       0.81732443 </v>
    <v>       0.99470968       0.08434528       0.56288610 </v>
    <v>       0.74748087       0.92563738       0.56095781 </v>
    <v>       0.75119975       0.07391546       0.81478278 </v>
    <v>       0.49930593       0.92591429       0.81500502 </v>
   </varray>
  </structure>
  <varray name="forces" >
   <v>       0.13287470       0.02791927       0.52577377 </v>
   <v>      -0.15439018       0.05685110       0.75189831 </v>
   <v>       0.71146565       0.02589037       0.12882138 </v>
   <v>      -0.06846364      -0.03510673      -0.13381964 </v>
   <v>       0.13379790      -0.07201981       0.39825642 </v>
   <v>       0.01280465      -0.00104183      -0.33462764 </v>
   <v>      -0.53893952      -0.04376146      -0.79004134 </v>
   <v>      -0.02282010       0.00060800      -0.00125656 </v>
   <v>      -0.07331239       0.03332391       0.13980107 </v>
   <v>       0.50412705       0.05468133      -0.42408702 </v>
   <v>      -0.45695889       0.00905159       0.04507646 </v>
   <v>       0.00599674      -0.00726946       0.05793399 </v>
   <v>      -0.06403321      -0.00635791       0.06423067 </v>
   <v>       0.14657571       0.08444170       0.14361848 </v>
   <v>      -0.08460729      -0.11751038       0.14264454 </v>
   <v>      -0.07424498       1.17928079       0.40017476 </v>
   <v>      -0.30999686      -0.15501131       0.17065356 </v>
   <v>      -0.12622874       0.00385786       0.10596659 </v>
   <v>       0.04572013       0.04039779       0.11599662 </v>
   <v>       0.15856648       0.06436458       0.10515958 </v>
   <v>       0.23866848      -0.50642638       0.24682086 </v>
   <v>       0.38181252       1.16610889      -0.08383561 </v>
   <v>      -0.23305767      -2.11377956      -0.23168420 </v>
   <v>      -0.17136788       0.06958243      -0.32368785 </v>
   <v>      -0.12523369      -0.04323092      -0.19620789 </v>
   <v>      -0.31736357       0.17652031      -0.10248453 </v>
   <v>       0.14510064      -0.09516963      -0.04639894 </v>
   <v>       0.05251150       0.01703618      -0.19429766 </v>
   <v>       0.26325515      -0.04457432      -0.32457705 </v>
   <v>       0.09241304       0.24381618      -0.16678459 </v>
   <v>      -0.13085682      -0.20509156      -0.10658409 </v>
   <v>       0.24423150       0.12432882      -0.10582310 </v>
   <v>       0.11236770      -0.11100858      -0.40051689 </v>
   <v>       0.00279992       0.12306401      -0.06787359 </v>
   <v>       0.03785667      -0.14585070      -0.08830666 </v>
   <v>      -0.26214880       0.15805153      -0.27643195 </v>
   <v>      -0.09510990      -0.21192319      -0.06530893 </v>
   <v>       0.22312444       0.07957300       0.23437084 </v>
   <v>      -0.38676768      -0.11323118       0.12667067 </v>
   <v>       0.06585682       0.17399292       0.13247507 </v>
   <v>       0.14895714      -0.16255922       0.33151373 </v>
   <v>      -0.15845691       0.24997896       0.02598278 </v>
   <v>       0.32670209      -0.15574877       0.06727673 </v>
   <v>      -0.18510994       0.12837617       0.25217295 </v>
   <v>      -0.02126454      -0.15190634       0.11022997 </v>
   <v>      -0.24334488       0.20697472      -0.31608217 </v>
   <v>       0.28605074      -0.19516019      -0.30360597 </v>
   <v>       0.03943147      -1.52606654      -1.19818239 </v>
   <v>      -0.60909120       0.65665711      -0.62853764 </v>
   <v>      -0.27862487       0.20107763      -0.28078506 </v>
   <v>       0.28384012      -0.22176606      -0.31765380 </v>
   <v>      -0.37195696       0.18443766       0.26963368 </v>
   <v>       0.82673447       0.03990648      -0.28852834 </v>
   <v>       0.85647754      -0.03603201       0.25231002 </v>
   <v>       0.62233667       2.57866761       0.61251611 </v>
   <v>       0.68517791       0.07743703       0.74106860 </v>
   <v>      -0.70134479      -0.07083343       0.71936449 </v>
   <v>      -1.17714797      -1.50294041       0.04368339 </v>
   <v>      -0.36517626      -0.18965167      -0.29179736 </v>
   <v>       0.23396727       0.21581333       0.30590104 </v>
   <v>      -0.21418271      -0.21103967       0.32181134 </v>
  </varray>
  <varray name="stress" >
   <v>       3.92325062      -0.04148718      -0.20905131 </v>
   <v>      -0.04148729       2.28981845       0.58709392 </v>
   <v>      -0.20905115       0.58709412       3.44455699 </v>
  </varray>
  <energy>
   <i name="e_fr_energy">   -311.48471309 </i>
   <i name="e_wo_entrp">   -311.48471309 </i>
   <i name="e_0_energy">      0.00000000 </i>
  </energy>
  <time name="totalsc">  843.93  848.14</time>
 </calculation>
 <calculation>
  <scstep>
   <time name="dav">   61.54   61.99</time>
   <time name="total">   62.34   62.78</time>
   <energy>
    <i name="alphaZ">   1085.30559732 </i>
    <i name="ewald"> -31098.59196088 </i>
    <i name="hartreedc"> -12775.90101945 </i>
    <i name="XCdc">   1419.59543078 </i>
    <i name="pawpsdc">  44112.06601252 </i>
    <i name="pawaedc"> -43592.23727122 </i>
    <i name="eentropy">      0.00000000 </i>
    <i name="bandstr">  -4237.13295603 </i>
    <i name="atom">  44791.06186932 </i>
    <i name="e_fr_energy">   -295.83429765 </i>
    <i name="e_wo_entrp">   -295.83429765 </i>
    <i name="e_0_energy">   -295.83429765 </i>
   </energy>
  </scstep>
  <scstep>
   <time name="dav">   68.90   69.43</time>
   <time name="total">   69.69   70.23</time>
   <energy>
    <i name="e_fr_energy">   -297.54306894 </i>
    <i name="e_wo_entrp">   -297.54306894 </i>
    <i name="e_0_energy">   -297.54306894 </i>
   </energy>
  </scstep>
  <scstep>
   <time name="dav">   86.39   86.88</time>
   <time name="total">   87.19   87.68</time>
   <energy>
    <i name="e_fr_energy">   -297.52082446 </i>
    <i name="e_wo_entrp">   -297.52082446 </i>
    <i name="e_0_energy">   -297.52082446 </i>
   </energy>
  </scstep>
  <scstep>
   <time name="dav">   72.28   72.60</time>
   <time name="total">   73.07   73.39</time>
   <energy>
    <i name="e_fr_energy">   -297.48996969 </i>
    <i name="e_wo_entrp">   -297.48996969 </i>
    <i name="e_0_energy">   -297.48996969 </i>
   </energy>
  </scstep>
  <scstep>
   <time name="dav">   73.86   73.92</time>
   <time name="total">   74.65   74.72</time>
   <energy>
    <i name="e_fr_energy">   -297.46836827 </i>
    <i name="e_wo_entrp">   -297.46836827 </i>
    <i name="e_0_energy">   -297.46836827 </i>
   </energy>
  </scstep>
  <scstep>
   <time name="dav">   77.68   78.25</time>
   <time name="total">   78.48   79.05</time>
   <energy>
    <i name="e_fr_energy">   -297.46667503 </i>
    <i name="e_wo_entrp">   -297.46667503 </i>
    <i name="e_0_energy">   -297.46667503 </i>
   </energy>
  </scstep>
  <scstep>
   <time name="dav">   69.69   70.17</time>
   <time name="total">   70.49   70.97</time>
   <energy>
    <i name="e_fr_energy">   -297.46687989 </i>
    <i name="e_wo_entrp">   -297.46687989 </i>
    <i name="e_0_energy">   -297.46687989 </i>
   </energy>
  </scstep>
  <scstep>
   <time name="dav">   93.05   93.78</time>
   <time name="total">   93.85   94.58</time>
   <energy>
    <i name="e_fr_energy">   -297.46675406 </i>
    <i name="e_wo_entrp">   -297.46675406 </i>
    <i name="e_0_energy">   -297.46675406 </i>
   </energy>
  </scstep>
  <scstep>
   <time name="dav">   72.87   72.91</time>
   <time name="total">   73.67   73.71</time>
   <energy>
    <i name="e_fr_energy">   -297.46662742 </i>
    <i name="e_wo_entrp">   -297.46662742 </i>
    <i name="e_0_energy">   -297.46662742 </i>
   </energy>
  </scstep>
  <scstep>
   <time name="dav">   71.13   71.74</time>
   <time name="total">   71.92   72.53</time>
   <energy>
    <i name="e_fr_energy">   -297.46665080 </i>
    <i name="e_wo_entrp">   -297.46665080 </i>
    <i name="e_0_energy">   -297.46665080 </i>
   </energy>
  </scstep>
  <scstep>
   <time name="dav">   74.23   74.67</time>
   <time name="total">   75.03   75.47</time>
   <energy>
    <i name="e_fr_energy">   -297.46665285 </i>
    <i name="e_wo_entrp">   -297.46665285 </i>
    <i name="e_0_energy">   -297.46665285 </i>
   </energy>
  </scstep>
  <scstep>
   <time name="dav">   58.45   58.75</time>
   <time name="total">   59.25   59.55</time>
   <energy>
    <i name="e_fr_energy">   -297.46665476 </i>
    <i name="e_wo_entrp">   -297.46665476 </i>
    <i name="e_0_energy">   -297.46665476 </i>
   </energy>
  </scstep>
  <scstep>
   <time name="dav">   57.84   57.85</time>
   <time name="total">   57.91   57.93</time>
   <energy>
    <i name="alphaZ">   1085.30559732 </i>
    <i name="ewald"> -31098.59196088 </i>
    <i name="hartreedc"> -12774.28730624 </i>
    <i name="XCdc">   1419.55845811 </i>
    <i name="pawpsdc">  43929.26319002 </i>
    <i name="pawaedc"> -43406.03755066 </i>
    <i name="eentropy">      0.00000000 </i>
    <i name="bandstr">  -4243.73895223 </i>
    <i name="atom">  44791.06186932 </i>
    <i name="e_fr_energy">   -297.46665524 </i>
    <i name="e_wo_entrp">   -297.46665524 </i>
    <i name="e_0_energy">   -297.46665524 </i>
   </energy>
  </scstep>
  <structure>
   <crystal>
    <varray name="basis" >
     <v>      11.15838899      -0.00135970      -0.00430674 </v>
     <v>      -0.00116382       9.50218738       0.00237362 </v>
     <v>      -0.00430901       0.00278616      11.16533578 </v>
    </varray>
    <i name="volume">   1183.85027050 </i>
    <varray name="rec_basis" >
     <v>       0.08961869       0.00001097       0.00003458 </v>
     <v>       0.00001281       0.10523893      -0.00002626 </v>
     <v>       0.00003457      -0.00002237       0.08956293 </v>
    </varray>
   </crystal>
   <varray name="positions" >
    <v>       0.12615613       0.00025834       0.19379534 </v>
    <v>       0.37231972       0.00110113       0.19606809 </v>
    <v>       0.88471025       0.00057200       0.43839668 </v>
    <v>       0.62331925       0.99927354       0.18607204 </v>
    <v>       0.87694555      -0.00094704       0.19203256 </v>
    <v>       0.12555522       0.99980807       0.93272386 </v>
    <v>       0.36829661      -0.00054457       0.67777952 </v>
    <v>       0.62512428       0.99982291       0.93677755 </v>
    <v>       0.62331054       0.00036000       0.68771360 </v>
    <v>       0.88104511       0.00109397       0.68173403 </v>
    <v>       0.61784611       0.99987165       0.43756117 </v>
    <v>       0.37310489       0.00072331       0.93589462 </v>
    <v>       0.87716311      -0.00059113       0.93587303 </v>
    <v>       0.00253644       0.30238161       0.06511640 </v>
    <v>       0.24869438       0.69730528       0.06528971 </v>
    <v>       0.24867673       0.28917982       0.31778611 </v>
    <v>       0.49521390       0.70372819       0.31541103 </v>
    <v>       0.49837354       0.30198631       0.06475056 </v>
    <v>       0.75073312       0.69813645       0.06450666 </v>
    <v>       0.75224579       0.30225004       0.31430912 </v>
    <v>       0.00357059       0.70827182       0.31650469 </v>
    <v>       0.00497341       0.28917917       0.56143897 </v>
    <v>       0.24748165       0.71072355       0.56012755 </v>
    <v>       0.24732584       0.29637765       0.80784007 </v>
    <v>       0.49795190       0.69779172       0.80973890 </v>
    <v>       0.49518897       0.29650840       0.56114675 </v>
    <v>       0.75257490       0.69741485       0.56227280 </v>
    <v>       0.75078327       0.30211038       0.81000496 </v>
[...]
       <r>    8.8475    0.0000 </r>
       <r>    8.8498    0.0000 </r>
       <r>    8.8718    0.0000 </r>
       <r>    8.9070    0.0000 </r>
       <r>    8.9277    0.0000 </r>
      </set>
     </set>
    </set>
   </array>
  </eigenvalues>
  <separator name="orbital magnetization" >
   <v name="MAGDIPOLOUT">      0.00000000      0.00000000      0.00000000</v>
  </separator>
  <dos>
   <i name="efermi">      4.29108315 </i>
   <total>
    <array>
     <dimension dim="1">gridpoints</dimension>
     <dimension dim="2">spin</dimension>
     <field>energy</field>
     <field>total</field>
     <field>integrated</field>
     <set>
      <set comment="spin 1">
       <r>   -42.4733     0.0000     0.0000 </r>
       <r>   -42.2922     0.0000     0.0000 </r>
       <r>   -42.1111     0.0000     0.0000 </r>
       <r>   -41.9301     0.0000     0.0000 </r>
       <r>   -41.7490     0.0000     0.0000 </r>
       <r>   -41.5679     0.0000     0.0000 </r>
       <r>   -41.3868     0.0000     0.0000 </r>
       <r>   -41.2057     0.0000     0.0000 </r>
       <r>   -41.0247     0.0000     0.0000 </r>
       <r>   -40.8436     0.0000     0.0000 </r>
       <r>   -40.6625     0.0000     0.0000 </r>
       <r>   -40.4814     0.0000     0.0000 </r>
       <r>   -40.3003     0.0000     0.0000 </r>
       <r>   -40.1192     0.0000     0.0000 </r>
       <r>   -39.9382     0.0000     4.0000 </r>
       <r>   -39.7571     0.0000     8.0000 </r>
       <r>   -39.5760     0.0000    16.0000 </r>
       <r>   -39.3949     0.0000    20.0000 </r>
       <r>   -39.2138     0.0000    20.0000 </r>
       <r>   -39.0328     0.0000    20.0000 </r>
       <r>   -38.8517     0.0000    20.0000 </r>
       <r>   -38.6706     0.0000    20.0000 </r>
       <r>   -38.4895     0.0000    20.0000 </r>
       <r>   -38.3084     0.0000    20.0000 </r>
       <r>   -38.1273     0.0000    20.0000 </r>
       <r>   -37.9463     0.0000    20.0000 </r>
       <r>   -37.7652     0.0000    20.0000 </r>
       <r>   -37.5841     0.0000    20.0000 </r>
       <r>   -37.4030     0.0000    20.0000 </r>
       <r>   -37.2219     0.0000    20.0000 </r>
       <r>   -37.0409     0.0000    20.0000 </r>
       <r>   -36.8598     0.0000    20.0000 </r>
       <r>   -36.6787     0.0000    20.0000 </r>
       <r>   -36.4976     0.0000    20.0000 </r>
       <r>   -36.3165     0.0000    20.0000 </r>
       <r>   -36.1354     0.0000    20.0000 </r>
       <r>   -35.9544     0.0000    20.0000 </r>
       <r>   -35.7733     0.0000    20.0000 </r>
       <r>   -35.5922     0.0000    20.0000 </r>
       <r>   -35.4111     0.0000    20.0000 </r>
       <r>   -35.2300     0.0000    20.0000 </r>
       <r>   -35.0490     0.0000    20.0000 </r>
       <r>   -34.8679     0.0000    20.0000 </r>
       <r>   -34.6868     0.0000    20.0000 </r>
       <r>   -34.5057     0.0000    20.0000 </r>
       <r>   -34.3246     0.0000    20.0000 </r>
       <r>   -34.1435     0.0000    20.0000 </r>
       <r>   -33.9625     0.0000    20.0000 </r>
       <r>   -33.7814     0.0000    20.0000 </r>
       <r>   -33.6003     0.0000    20.0000 </r>
       <r>   -33.4192     0.0000    20.0000 </r>
       <r>   -33.2381     0.0000    20.0000 </r>
       <r>   -33.0570     0.0000    20.0000 </r>
       <r>   -32.8760     0.0000    20.0000 </r>
       <r>   -32.6949     0.0000    20.0000 </r>
       <r>   -32.5138     0.0000    20.0000 </r>
       <r>   -32.3327     0.0000    20.0000 </r>
       <r>   -32.1516     0.0000    20.0000 </r>
       <r>   -31.9706     0.0000    20.0000 </r>
       <r>   -31.7895     0.0000    20.0000 </r>
       <r>   -31.6084     0.0000    20.0000 </r>
       <r>   -31.4273     0.0000    20.0000 </r>
       <r>   -31.2462     0.0000    20.0000 </r>
       <r>   -31.0651     0.0000    20.0000 </r>
       <r>   -30.8841     0.0000    20.0000 </r>
       <r>   -30.7030     0.0000    20.0000 </r>
       <r>   -30.5219     0.0000    20.0000 </r>
       <r>   -30.3408     0.0000    20.0000 </r>
       <r>   -30.1597     0.0000    20.0000 </r>
       <r>   -29.9787     0.0000    20.0000 </r>
       <r>   -29.7976     0.0000    20.0000 </r>
       <r>   -29.6165     0.0000    20.0000 </r>
       <r>   -29.4354     0.0000    20.0000 </r>
       <r>   -29.2543     0.0000    20.0000 </r>
       <r>   -29.0732     0.0000    20.0000 </r>
       <r>   -28.8922     0.0000    20.0000 </r>
       <r>   -28.7111     0.0000    20.0000 </r>
       <r>   -28.5300     0.0000    20.0000 </r>
       <r>   -28.3489     0.0000    20.0000 </r>
       <r>   -28.1678     0.0000    20.0000 </r>
       <r>   -27.9868     0.0000    20.0000 </r>
       <r>   -27.8057     0.0000    20.0000 </r>
       <r>   -27.6246     0.0000    20.0000 </r>
       <r>   -27.4435     0.0000    20.0000 </r>
       <r>   -27.2624     0.0000    20.0000 </r>
       <r>   -27.0813     0.0000    20.0000 </r>
       <r>   -26.9003     0.0000    20.0000 </r>
       <r>   -26.7192     0.0000    20.0000 </r>
       <r>   -26.5381     0.0000    20.0000 </r>
       <r>   -26.3570     0.0000    20.0000 </r>
       <r>   -26.1759     0.0000    20.0000 </r>
       <r>   -25.9949     0.0000    20.0000 </r>
       <r>   -25.8138     0.0000    20.0000 </r>
       <r>   -25.6327     0.0000    20.0000 </r>
       <r>   -25.4516     0.0000    20.0000 </r>
       <r>   -25.2705     0.0000    20.0000 </r>
       <r>   -25.0894     0.0000    20.0000 </r>
       <r>   -24.9084     0.0000    20.0000 </r>
       <r>   -24.7273     0.0000    20.0000 </r>
       <r>   -24.5462     0.0000    20.0000 </r>
       <r>   -24.3651     0.0000    20.0000 </r>
       <r>   -24.1840     0.0000    20.0000 </r>
       <r>   -24.0030     0.0000    20.0000 </r>
       <r>   -23.8219     0.0000    20.0000 </r>
       <r>   -23.6408     0.0000    20.0000 </r>
       <r>   -23.4597     0.0000    20.0000 </r>
       <r>   -23.2786     0.0000    20.0000 </r>
       <r>   -23.0975     0.0000    20.0000 </r>
       <r>   -22.9165     0.0000    20.0000 </r>
       <r>   -22.7354     0.0000    20.0000 </r>
       <r>   -22.5543     0.0000    20.0000 </r>
       <r>   -22.3732     0.0000    20.0000 </r>
       <r>   -22.1921     0.0000    20.0000 </r>
       <r>   -22.0111     0.0000    20.0000 </r>
       <r>   -21.8300     0.0000    20.0000 </r>
       <r>   -21.6489     0.0000    20.0000 </r>
       <r>   -21.4678     0.0000    20.0000 </r>
       <r>   -21.2867     0.0000    20.0000 </r>
       <r>   -21.1056     0.0000    20.0000 </r>
       <r>   -20.9246     0.0000    20.0000 </r>
       <r>   -20.7435     0.0000    20.0000 </r>
       <r>   -20.5624     0.0000    20.0000 </r>
       <r>   -20.3813     0.0000    20.0000 </r>
       <r>   -20.2002     0.0000    20.0000 </r>
       <r>   -20.0192     0.0000    20.0000 </r>
       <r>   -19.8381     0.0000    20.0000 </r>
       <r>   -19.6570     0.0000    20.0000 </r>
       <r>   -19.4759     0.0000    20.0000 </r>
       <r>   -19.2948     0.0000    20.0000 </r>
       <r>   -19.1137     0.0000    20.0000 </r>
       <r>   -18.9327     0.0000    20.0000 </r>
       <r>   -18.7516     0.0000    30.0000 </r>
       <r>   -18.5705     0.0000   100.0000 </r>
       <r>   -18.3894     0.0000   154.0000 </r>
       <r>   -18.2083     0.0000   176.0000 </r>
       <r>   -18.0273     0.0000   176.0000 </r>
       <r>   -17.8462     0.0000   180.0000 </r>
       <r>   -17.6651     0.0000   180.0000 </r>
       <r>   -17.4840     0.0000   180.0000 </r>
       <r>   -17.3029     0.0000   180.0000 </r>
       <r>   -17.1218     0.0000   180.0000 </r>
       <r>   -16.9408     0.0000   180.0000 </r>
       <r>   -16.7597     0.0000   180.0000 </r>
       <r>   -16.5786     0.0000   180.0000 </r>
       <r>   -16.3975     0.0000   180.0000 </r>
       <r>   -16.2164     0.0000   180.0000 </r>
       <r>   -16.0354     0.0000   180.0000 </r>
       <r>   -15.8543     0.0000   180.0000 </r>
       <r>   -15.6732     0.0000   180.0000 </r>
       <r>   -15.4921     0.0000   180.0000 </r>
       <r>   -15.3110     0.0000   180.0000 </r>
       <r>   -15.1299     0.0000   180.0000 </r>
       <r>   -14.9489     0.0000   180.0000 </r>
       <r>   -14.7678     0.0000   180.0000 </r>
       <r>   -14.5867     0.0000   180.0000 </r>
       <r>   -14.4056     0.0000   180.0000 </r>
       <r>   -14.2245     0.0000   180.0000 </r>
       <r>   -14.0435     0.0000   180.0000 </r>
       <r>   -13.8624     0.0000   180.0000 </r>
       <r>   -13.6813     0.0000   180.0000 </r>
       <r>   -13.5002     0.0000   180.0000 </r>
       <r>   -13.3191     0.0000   180.0000 </r>
       <r>   -13.1380     0.0000   180.0000 </r>
       <r>   -12.9570     0.0000   186.0000 </r>
       <r>   -12.7759     0.0000   196.0000 </r>
       <r>   -12.5948     0.0000   202.0000 </r>
       <r>   -12.4137     0.0000   206.0000 </r>
       <r>   -12.2326     0.0000   210.0000 </r>
       <r>   -12.0516     0.0000   210.0000 </r>
       <r>   -11.8705     0.0000   212.0000 </r>
       <r>   -11.6894     0.0000   212.0000 </r>
       <r>   -11.5083     0.0000   212.0000 </r>
       <r>   -11.3272     0.0000   212.0000 </r>
       <r>   -11.1461     0.0000   212.0000 </r>
       <r>   -10.9651     0.0000   212.0000 </r>
       <r>   -10.7840     0.0000   212.0000 </r>
       <r>   -10.6029     0.0000   212.0000 </r>
       <r>   -10.4218     0.0000   212.0000 </r>
       <r>   -10.2407     0.0000   212.0000 </r>
       <r>   -10.0597     0.0000   212.0000 </r>
       <r>    -9.8786     0.0000   212.0000 </r>
       <r>    -9.6975     0.0000   212.0000 </r>
       <r>    -9.5164     0.0000   212.0000 </r>
       <r>    -9.3353     9.9568   212.4829 </r>
       <r>    -9.1542     1.8635   213.9773 </r>
       <r>    -8.9732     7.0417   215.7768 </r>
       <r>    -8.7921     7.4327   216.8043 </r>
       <r>    -8.6110     0.0000   220.0000 </r>
       <r>    -8.4299    15.7248   224.0275 </r>
       <r>    -8.2488    15.9413   227.2891 </r>
       <r>    -8.0678    18.2319   228.8403 </r>
       <r>    -7.8867    31.2418   235.7030 </r>
       <r>    -7.7056     0.0000   240.0000 </r>
       <r>    -7.5245    23.6186   242.5941 </r>
       <r>    -7.3434     0.0000   244.0000 </r>
       <r>    -7.1623     0.0000   244.0000 </r>
       <r>    -6.9813     0.0000   244.0000 </r>
       <r>    -6.8002     0.0000   244.0000 </r>
       <r>    -6.6191     0.0000   244.0000 </r>
       <r>    -6.4380     0.0000   244.0000 </r>
       <r>    -6.2569     9.1599   244.3169 </r>
       <r>    -6.0759    23.5817   248.9361 </r>
       <r>    -5.8948    16.7111   252.1831 </r>
       <r>    -5.7137    28.6400   254.9950 </r>
       <r>    -5.5326    19.7019   260.1031 </r>
       <r>    -5.3515    21.6213   263.5345 </r>
       <r>    -5.1704    12.5178   266.6437 </r>
       <r>    -4.9894     3.4607   267.8702 </r>
       <r>    -4.8083    13.2307   269.2352 </r>
       <r>    -4.6272     6.3632   271.2138 </r>
       <r>    -4.4461     4.1192   272.5000 </r>
       <r>    -4.2650     7.4062   273.5349 </r>
       <r>    -4.0840     6.1187   275.0296 </r>
       <r>    -3.9029     2.2857   275.6627 </r>
       <r>    -3.7218     0.8712   275.9484 </r>
       <r>    -3.5407     0.0000   276.0000 </r>
       <r>    -3.3596     0.0000   276.0000 </r>
       <r>    -3.1785     0.0000   276.0000 </r>
       <r>    -2.9975     0.0000   276.0000 </r>
       <r>    -2.8164     0.0000   276.0000 </r>
       <r>    -2.6353     0.0000   276.0000 </r>
       <r>    -2.4542     0.0000   276.0000 </r>
       <r>    -2.2731     0.0000   276.0000 </r>
       <r>    -2.0921     0.0000   276.0000 </r>
       <r>    -1.9110     0.0000   276.0000 </r>
       <r>    -1.7299     0.0000   276.0000 </r>
       <r>    -1.5488     0.0000   276.0000 </r>
       <r>    -1.3677     0.0000   276.0000 </r>
       <r>    -1.1866     8.6663   276.6436 </r>
       <r>    -1.0056     6.6318   277.9471 </r>
       <r>    -0.8245     9.0062   279.0661 </r>
       <r>    -0.6434    13.5422   281.3966 </r>
       <r>    -0.4623     9.4792   283.2951 </r>
       <r>    -0.2812    28.2566   286.6594 </r>
       <r>    -0.1002    35.4230   291.7508 </r>
       <r>     0.0809    37.0235   298.8698 </r>
       <r>     0.2620    37.8778   305.6221 </r>
       <r>     0.4431    29.0018   313.5392 </r>
       <r>     0.6242    44.2658   319.0496 </r>
       <r>     0.8053    38.8773   325.6739 </r>
       <r>     0.9863    45.1161   331.7467 </r>
       <r>     1.1674    44.1287   340.3870 </r>
       <r>     1.3485    53.3201   347.9276 </r>
       <r>     1.5296    50.3900   357.0109 </r>
       <r>     1.7107    56.5354   366.9661 </r>
       <r>     1.8917    41.8257   375.1829 </r>
       <r>     2.0728    45.6990   382.6452 </r>
       <r>     2.2539    47.6007   390.4203 </r>
       <r>     2.4350    67.7025   401.0000 </r>
       <r>     2.6161    71.5988   413.8965 </r>
       <r>     2.7972    52.8734   423.6798 </r>
       <r>     2.9782    54.4535   434.3995 </r>
       <r>     3.1593    34.7978   444.9733 </r>
       <r>     3.3404    32.0111   451.5474 </r>
       <r>     3.5215    28.9717   457.7522 </r>
       <r>     3.7026    20.2369   462.3797 </r>
       <r>     3.8836    13.9874   465.8590 </r>
       <r>     4.0647     5.3825   467.6126 </r>
       <r>     4.2458     0.2250   467.9972 </r>
       <r>     4.4269     0.0000   468.0000 </r>
       <r>     4.6080     0.0000   468.0000 </r>
       <r>     4.7891     0.0000   468.0000 </r>
       <r>     4.9701     0.0000   468.0000 </r>
       <r>     5.1512     0.0000   468.0000 </r>
       <r>     5.3323     3.4112   468.1684 </r>
       <r>     5.5134     9.9930   469.3856 </r>
       <r>     5.6945    10.3488   471.3030 </r>
       <r>     5.8755    25.2448   474.3211 </r>
       <r>     6.0566    14.5188   477.7268 </r>
       <r>     6.2377    13.0572   480.1841 </r>
       <r>     6.4188    13.3868   482.5345 </r>
       <r>     6.5999    15.2092   485.1217 </r>
       <r>     6.7810    17.6783   488.0855 </r>
       <r>     6.9620    21.0791   491.5846 </r>
       <r>     7.1431    23.2663   495.6486 </r>
       <r>     7.3242    28.1595   500.1813 </r>
       <r>     7.5053    32.4579   506.1754 </r>
       <r>     7.6864    26.6379   510.8277 </r>
       <r>     7.8674    29.3672   515.9360 </r>
       <r>     8.0485    35.8905   522.2365 </r>
       <r>     8.2296    26.9790   528.3682 </r>
       <r>     8.4107    26.7219   532.9000 </r>
       <r>     8.5918    29.5080   538.1371 </r>
       <r>     8.7729    39.5438   544.7619 </r>
       <r>     8.9539    33.2070   551.5572 </r>
       <r>     9.1350    25.1355   556.6741 </r>
       <r>     9.3161     4.7618   559.8952 </r>
       <r>     9.4972     0.0000   560.0000 </r>
       <r>     9.6783     0.0000   560.0000 </r>
       <r>     9.8594     0.0000   560.0000 </r>
       <r>    10.0404     0.0000   560.0000 </r>
       <r>    10.2215     0.0000   560.0000 </r>
       <r>    10.4026     0.0000   560.0000 </r>
       <r>    10.5837     0.0000   560.0000 </r>
       <r>    10.7648     0.0000   560.0000 </r>
       <r>    10.9458     0.0000   560.0000 </r>
       <r>    11.1269     0.0000   560.0000 </r>
       <r>    11.3080     0.0000   560.0000 </r>
       <r>    11.4891     0.0000   560.0000 </r>
       <r>    11.6702     0.0000   560.0000 </r>
       <r>    11.8513     0.0000   560.0000 </r>
      </set>
     </set>
    </array>
   </total>
  </dos>
 </calculation>
 <structure name="finalpos" >
  <crystal>
   <varray name="basis" >
    <v>      11.19747159       0.05755636      -0.00308251 </v>
    <v>       0.04767782       9.52421046       0.00088809 </v>
    <v>      -0.00276908       0.00269811      11.19791122 </v>
   </varray>
   <i name="volume">   1194.19365196 </i>
   <varray name="rec_basis" >
    <v>       0.08930818      -0.00044708       0.00002219 </v>
    <v>      -0.00053971       0.10499828      -0.00002543 </v>
    <v>       0.00002463      -0.00000845       0.08930238 </v>
   </varray>
  </crystal>
  <varray name="positions" >
   <v>       0.14282632      -0.02019792       0.22058724 </v>
   <v>       0.39289870       0.00721144       0.20899794 </v>
   <v>       0.90194522       0.00933420       0.41886167 </v>
   <v>       0.63122604      -0.00104402       0.18102818 </v>
   <v>       0.87701169       0.00095149       0.18694096 </v>
   <v>       0.12675351       0.00005790       0.93652869 </v>
   <v>       0.36096237       0.03099150       0.56994881 </v>
   <v>       0.62286700       0.00213116       0.93720116 </v>
   <v>       0.62975907       0.00491225       0.69129136 </v>
   <v>       0.89483524      -0.02224844       0.67390992 </v>
   <v>       0.63078481       0.00117185       0.43712023 </v>
   <v>       0.37629931      -0.00209034       0.94582175 </v>
   <v>       0.86713656       0.00123605       0.93864926 </v>
   <v>      -0.00196221       0.30555970       0.06262108 </v>
   <v>       0.24879829       0.68743805       0.06310401 </v>
   <v>       0.25042529       0.30100007       0.31373933 </v>
   <v>       0.49996058       0.69943870       0.31534299 </v>
   <v>       0.49513838       0.30811113       0.06554445 </v>
   <v>       0.74949231       0.69236895       0.06430508 </v>
   <v>       0.75212273       0.30937157       0.31716880 </v>
   <v>      -0.00045799       0.70029089       0.31316746 </v>
   <v>       0.00107778       0.29218440       0.56346834 </v>
   <v>       0.24343566       0.69773292       0.56306576 </v>
   <v>       0.24809004       0.30739902       0.81633947 </v>
   <v>       0.49580220       0.69773420       0.81536408 </v>
   <v>       0.50211115       0.31386768       0.56372906 </v>
   <v>       0.74527285       0.68743749       0.56463883 </v>
   <v>       0.74745617       0.30870408       0.81524077 </v>
   <v>      -0.00194722       0.69144261       0.81326531 </v>
   <v>       0.25318019       0.36034410       0.06584202 </v>
   <v>      -0.00564791       0.64773331       0.06339412 </v>
   <v>       0.50276082       0.34916162       0.31522178 </v>
   <v>       0.24727778       0.67744324       0.30953863 </v>
   <v>       0.75144726       0.34948872       0.06470007 </v>
   <v>       0.49827736       0.64907225       0.06336577 </v>
   <v>       0.99893843       0.33966126       0.31387697 </v>
   <v>       0.74675953       0.64950027       0.31405998 </v>
   <v>       0.25791261       0.27363011       0.56720149 </v>
   <v>      -0.00874044       0.67193030       0.56472009 </v>
   <v>       0.49995161       0.34573564       0.81720648 </v>
   <v>       0.24867032       0.65780095       0.81579028 </v>
   <v>       0.75056078       0.35542653       0.56490015 </v>
   <v>       0.49771238       0.65725940       0.56203026 </v>
   <v>       0.99667201       0.34251514       0.81587109 </v>
   <v>       0.74674406       0.64947611       0.81691922 </v>
   <v>       0.49672322       0.08277763       0.06311862 </v>
   <v>       0.25590506       0.90858733       0.05603698 </v>
   <v>       0.26168153       0.09499195       0.27802826 </v>
   <v>      -0.01096376       0.91447782       0.29140201 </v>
   <v>       0.98239360       0.08570416       0.05189248 </v>
   <v>       0.75171989       0.91884993       0.05919260 </v>
   <v>       0.74871913       0.08461996       0.31754696 </v>
   <v>       0.52849343       0.91746201       0.30621842 </v>
   <v>       0.52782876       0.09380503       0.56048269 </v>
   <v>       0.24886575       0.90288939       0.57013552 </v>
   <v>       0.25242426       0.09933769       0.85945456 </v>
   <v>      -0.02258305       0.90866708       0.82770592 </v>
   <v>       0.95818014       0.08956107       0.55759424 </v>
   <v>       0.73401302       0.90908048       0.56399159 </v>
   <v>       0.74464885       0.08521432       0.82662518 </v>
   <v>       0.50396153       0.91552662       0.83841354 </v>
  </varray>
 </structure>
</modeling>
