<?xml version="1.0" encoding="ISO-8859-1"?>
<modeling>
 <generator>
  <i name="program" type="string">vasp </i>
  <i name="version" type="string">5.4.4.18Apr17-6-g9f103f2a35  </i>
  <i name="subversion" type="string">(build Jul 31 2017 11:33:29) complex            parallel </i>
  <i name="platform" type="string">LinuxIFC </i>
  <i name="date" type="string">2021 09 20 </i>
  <i name="time" type="string">19:41:23 </i>
 </generator>
 <incar>
  <i type="string" name="SYSTEM"> La2O2S</i>
  <i type="string" name="PREC">normal</i>
  <i type="int" name="NELMIN">     4</i>
  <i type="int" name="IBRION">     2</i>
  <i type="int" name="NFREE">    10</i>
  <i name="EDIFF">      0.00000100</i>
  <i name="EDIFFG">     -0.01000000</i>
  <i type="int" name="NSW">   200</i>
  <i type="int" name="ISIF">     3</i>
  <i name="ENCUT">    600.00000000</i>
  <i name="ENAUG">    900.00000000</i>
  <i type="int" name="ISMEAR">    -5</i>
  <i type="logical" name="LWAVE"> F  </i>
  <i type="logical" name="LCHARG"> F  </i>
  <v type="int" name="KPOINT_BSE">    -1     0     0     0</v>
 </incar>
 <structure name="primitive_cell" >
  <crystal>
   <varray name="basis" >
    <v>      11.17850000       0.00000000       0.00000000 </v>
    <v>       0.00000000       9.57460000       0.00000000 </v>
    <v>       0.00000000       0.00000000      11.18240000 </v>
   </varray>
   <i name="volume">   1196.84853820 </i>
   <varray name="rec_basis" >
    <v>       0.08945744       0.00000000       0.00000000 </v>
    <v>       0.00000000       0.10444301       0.00000000 </v>
    <v>       0.00000000       0.00000000       0.08942624 </v>
   </varray>
  </crystal>
  <varray name="positions" >
   <v>       0.12461000      -0.00016000       0.18687000 </v>
   <v>      -0.00013000       0.07798000       0.06246000 </v>
   <v>       0.24987000      -0.07798000       0.06246000 </v>
   <v>       0.00013000      -0.07798000       0.31246000 </v>
   <v>       0.25013000       0.07798000       0.31246000 </v>
   <v>       0.37461000       0.00017000       0.18687000 </v>
   <v>      -0.12539000       0.00017000       0.18687000 </v>
   <v>       0.00013000       0.29519000       0.06281000 </v>
   <v>       0.25013000      -0.29519000       0.06281000 </v>
   <v>      -0.00013000      -0.29519000       0.31282000 </v>
   <v>       0.24987000       0.29519000       0.31282000 </v>
   <v>       0.00005000      -0.32677000       0.06286000 </v>
   <v>       0.25005000       0.32677000       0.06286000 </v>
   <v>      -0.00005000       0.32677000       0.31286000 </v>
   <v>       0.24995000      -0.32677000       0.31286000 </v>
   <v>      -0.12461000       0.00017000      -0.06313000 </v>
   <v>       0.00013000      -0.07798000      -0.18754000 </v>
   <v>      -0.25013000      -0.07798000       0.06246000 </v>
   <v>      -0.24987000       0.07798000       0.31246000 </v>
   <v>       0.25013000       0.07798000      -0.18754000 </v>
   <v>       0.49987000       0.07798000       0.06246000 </v>
   <v>      -0.00013000       0.07798000      -0.43754000 </v>
   <v>      -0.49987000      -0.07798000       0.31246000 </v>
   <v>       0.24987000      -0.07798000      -0.43754000 </v>
   <v>      -0.00013000      -0.29519000      -0.18718000 </v>
   <v>      -0.24987000      -0.29519000       0.06281000 </v>
   <v>       0.24987000       0.29519000      -0.18718000 </v>
   <v>      -0.25013000       0.29519000       0.31282000 </v>
   <v>      -0.49987000       0.29519000       0.06281000 </v>
   <v>       0.49987000      -0.29519000       0.31282000 </v>
   <v>       0.00013000       0.29519000      -0.43719000 </v>
   <v>       0.25013000      -0.29519000      -0.43719000 </v>
   <v>      -0.00005000       0.32677000      -0.18714000 </v>
   <v>       0.24995000      -0.32677000      -0.18714000 </v>
   <v>      -0.24995000       0.32677000       0.06286000 </v>
   <v>      -0.25005000      -0.32677000       0.31286000 </v>
   <v>      -0.49995000      -0.32677000       0.06286000 </v>
   <v>       0.49995000       0.32677000       0.31286000 </v>
   <v>       0.00005000      -0.32677000      -0.43714000 </v>
   <v>       0.25005000       0.32677000      -0.43714000 </v>
   <v>      -0.37539000      -0.00016000       0.18687000 </v>
   <v>       0.12461000      -0.00016000      -0.31313000 </v>
   <v>      -0.24987000       0.07798000      -0.18754000 </v>
   <v>      -0.49987000      -0.07798000      -0.18754000 </v>
   <v>      -0.25013000      -0.07798000      -0.43754000 </v>
   <v>       0.49987000       0.07798000      -0.43754000 </v>
   <v>      -0.37461000      -0.00016000       0.43687000 </v>
   <v>      -0.37461000      -0.00016000      -0.06313000 </v>
   <v>       0.37461000       0.00017000      -0.31313000 </v>
   <v>      -0.12539000       0.00017000      -0.31313000 </v>
   <v>      -0.25013000       0.29519000      -0.18718000 </v>
   <v>       0.49987000      -0.29519000      -0.18718000 </v>
   <v>      -0.24987000      -0.29519000      -0.43719000 </v>
   <v>      -0.49987000       0.29519000      -0.43719000 </v>
   <v>      -0.25005000      -0.32677000      -0.18714000 </v>
   <v>       0.49995000       0.32677000      -0.18714000 </v>
   <v>      -0.24995000       0.32677000      -0.43714000 </v>
   <v>      -0.49995000      -0.32677000      -0.43714000 </v>
   <v>      -0.37539000      -0.00016000      -0.31313000 </v>
  </varray>
 </structure>
 <varray name="primitive_index" >
  <v type="int" >        1 </v>
  <v type="int" >       48 </v>
  <v type="int" >       45 </v>
  <v type="int" >       47 </v>
  <v type="int" >       46 </v>
  <v type="int" >        7 </v>
  <v type="int" >        8 </v>
  <v type="int" >       12 </v>
  <v type="int" >       13 </v>
  <v type="int" >       19 </v>
  <v type="int" >       14 </v>
  <v type="int" >       29 </v>
  <v type="int" >       28 </v>
  <v type="int" >       34 </v>
  <v type="int" >       31 </v>
  <v type="int" >        6 </v>
  <v type="int" >       55 </v>
  <v type="int" >       49 </v>
  <v type="int" >       50 </v>
  <v type="int" >       54 </v>
  <v type="int" >       44 </v>
  <v type="int" >       56 </v>
  <v type="int" >       51 </v>
  <v type="int" >       53 </v>
  <v type="int" >       27 </v>
  <v type="int" >       17 </v>
  <v type="int" >       22 </v>
  <v type="int" >       18 </v>
  <v type="int" >       16 </v>
  <v type="int" >       15 </v>
  <v type="int" >       20 </v>
  <v type="int" >       21 </v>
  <v type="int" >       42 </v>
  <v type="int" >       39 </v>
  <v type="int" >       32 </v>
  <v type="int" >       35 </v>
  <v type="int" >       33 </v>
  <v type="int" >       30 </v>
  <v type="int" >       37 </v>
  <v type="int" >       36 </v>
  <v type="int" >        3 </v>
  <v type="int" >        4 </v>
  <v type="int" >       58 </v>
  <v type="int" >       59 </v>
  <v type="int" >       57 </v>
  <v type="int" >       52 </v>
  <v type="int" >        2 </v>
  <v type="int" >        5 </v>
  <v type="int" >        9 </v>
  <v type="int" >       11 </v>
  <v type="int" >       26 </v>
  <v type="int" >       23 </v>
  <v type="int" >       25 </v>
  <v type="int" >       24 </v>
  <v type="int" >       43 </v>
  <v type="int" >       38 </v>
  <v type="int" >       40 </v>
  <v type="int" >       41 </v>
  <v type="int" >       10 </v>
 </varray>
 <kpoints>
  <generation param="Gamma">
   <v type="int" name="divisions">       2        2        2 </v>
   <v name="usershift">      0.00000000       0.00000000       0.00000000 </v>
   <v name="genvec1">      0.50000000       0.00000000       0.00000000 </v>
   <v name="genvec2">      0.00000000       0.50000000       0.00000000 </v>
   <v name="genvec3">      0.00000000       0.00000000       0.50000000 </v>
   <v name="shift">      0.00000000       0.00000000       0.00000000 </v>
  </generation>
  <varray name="kpointlist" >
   <v>       0.00000000       0.00000000       0.00000000 </v>
   <v>       0.50000000       0.00000000       0.00000000 </v>
   <v>       0.00000000       0.50000000       0.00000000 </v>
   <v>       0.50000000       0.50000000       0.00000000 </v>
   <v>       0.00000000       0.00000000       0.50000000 </v>
   <v>       0.50000000       0.00000000       0.50000000 </v>
   <v>       0.00000000       0.50000000       0.50000000 </v>
   <v>       0.50000000       0.50000000       0.50000000 </v>
  </varray>
  <varray name="weights" >
   <v>       0.12500000 </v>
   <v>       0.12500000 </v>
   <v>       0.12500000 </v>
   <v>       0.12500000 </v>
   <v>       0.12500000 </v>
   <v>       0.12500000 </v>
   <v>       0.12500000 </v>
   <v>       0.12500000 </v>
  </varray>
  <varray name="tetrahedronlist"  type="int" >
   <v type="int" >        2        1        2        4        5 </v>
   <v type="int" >        2        1        3        4        5 </v>
   <v type="int" >        2        3        4        5        7 </v>
   <v type="int" >        2        2        4        5        6 </v>
   <v type="int" >        2        4        5        6        8 </v>
   <v type="int" >        2        4        5        7        8 </v>
   <v type="int" >        2        1        2        3        6 </v>
   <v type="int" >        2        2        3        4        6 </v>
   <v type="int" >        2        3        4        6        8 </v>
   <v type="int" >        2        1        3        5        6 </v>
   <v type="int" >        2        3        5        6        7 </v>
   <v type="int" >        2        3        6        7        8 </v>
   <v type="int" >        2        2        3        4        7 </v>
   <v type="int" >        2        1        2        3        7 </v>
   <v type="int" >        2        1        2        5        7 </v>
   <v type="int" >        2        2        4        7        8 </v>
   <v type="int" >        2        2        6        7        8 </v>
   <v type="int" >        2        2        5        6        7 </v>
   <v type="int" >        2        1        3        4        8 </v>
   <v type="int" >        2        1        2        4        8 </v>
   <v type="int" >        2        1        2        6        8 </v>
   <v type="int" >        2        1        3        7        8 </v>
   <v type="int" >        2        1        5        7        8 </v>
   <v type="int" >        2        1        5        6        8 </v>
  </varray>
  <i name="volumeweight">      0.02083333 </i>
 </kpoints>
 <parameters>
  <separator name="general" >
   <i type="string" name="SYSTEM">La2O2S</i>
   <i type="logical" name="LCOMPAT"> F  </i>
  </separator>
  <separator name="electronic" >
   <i type="string" name="PREC">normal</i>
   <i name="ENMAX">    600.00000000</i>
   <i name="ENAUG">    900.00000000</i>
   <i name="EDIFF">      0.00000100</i>
   <i type="int" name="IALGO">    38</i>
   <i type="int" name="IWAVPR">    11</i>
   <i type="int" name="NBANDS">   280</i>
   <i name="NELECT">    460.00000000</i>
   <i type="int" name="TURBO">     0</i>
   <i type="int" name="IRESTART">     0</i>
   <i type="int" name="NREBOOT">     0</i>
   <i type="int" name="NMIN">     0</i>
   <i name="EREF">      0.00000000</i>
   <separator name="electronic smearing" >
    <i type="int" name="ISMEAR">    -5</i>
    <i name="SIGMA">      0.20000000</i>
    <i name="KSPACING">      0.50000000</i>
    <i type="logical" name="KGAMMA"> T  </i>
   </separator>
   <separator name="electronic projectors" >
    <i type="logical" name="LREAL"> F  </i>
    <v name="ROPT">      0.00000000      0.00000000      0.00000000      0.00000000      0.00000000</v>
    <i type="int" name="LMAXPAW">  -100</i>
    <i type="int" name="LMAXMIX">     2</i>
    <i type="logical" name="NLSPLINE"> F  </i>
   </separator>
   <separator name="electronic startup" >
    <i type="int" name="ISTART">     0</i>
    <i type="int" name="ICHARG">     2</i>
    <i type="int" name="INIWAV">     1</i>
   </separator>
   <separator name="electronic spin" >
    <i type="int" name="ISPIN">     1</i>
    <i type="logical" name="LNONCOLLINEAR"> F  </i>
    <v name="MAGMOM">      1.00000000      1.00000000      1.00000000      1.00000000      1.00000000      1.00000000      1.00000000      1.00000000      1.00000000      1.00000000      1.00000000      1.00000000      1.00000000      1.00000000      1.00000000      1.00000000      1.00000000      1.00000000      1.00000000      1.00000000
      1.00000000      1.00000000      1.00000000      1.00000000      1.00000000      1.00000000      1.00000000      1.00000000      1.00000000      1.00000000      1.00000000      1.00000000      1.00000000      1.00000000      1.00000000      1.00000000      1.00000000      1.00000000      1.00000000      1.00000000
      1.00000000      1.00000000      1.00000000      1.00000000      1.00000000      1.00000000      1.00000000      1.00000000      1.00000000      1.00000000      1.00000000      1.00000000      1.00000000      1.00000000      1.00000000      1.00000000      1.00000000      1.00000000      1.00000000</v>
    <i name="NUPDOWN">     -1.00000000</i>
    <i type="logical" name="LSORBIT"> F  </i>
    <v name="SAXIS">      0.00000000      0.00000000      1.00000000</v>
    <i type="logical" name="LSPIRAL"> F  </i>
    <v name="QSPIRAL">      0.00000000      0.00000000      0.00000000</v>
    <i type="logical" name="LZEROZ"> F  </i>
   </separator>
   <separator name="electronic exchange-correlation" >
    <i type="logical" name="LASPH"> F  </i>
    <i type="logical" name="LMETAGGA"> F  </i>
   </separator>
   <separator name="electronic convergence" >
    <i type="int" name="NELM">    60</i>
    <i type="int" name="NELMDL">    -5</i>
    <i type="int" name="NELMIN">     4</i>
    <i name="ENINI">    600.00000000</i>
    <separator name="electronic convergence detail" >
     <i type="logical" name="LDIAG"> T  </i>
     <i type="logical" name="LSUBROT"> F  </i>
     <i name="WEIMIN">      0.00100000</i>
     <i name="EBREAK">      0.00000000</i>
     <i name="DEPER">      0.30000000</i>
     <i type="int" name="NRMM">     4</i>
     <i name="TIME">      0.40000000</i>
    </separator>
   </separator>
   <separator name="electronic mixer" >
    <i name="AMIX">      0.40000000</i>
    <i name="BMIX">      1.00000000</i>
    <i name="AMIN">      0.10000000</i>
    <i name="AMIX_MAG">      1.60000000</i>
    <i name="BMIX_MAG">      1.00000000</i>
    <separator name="electronic mixer details" >
     <i type="int" name="IMIX">     4</i>
     <i type="logical" name="MIXFIRST"> F  </i>
     <i type="int" name="MAXMIX">   -45</i>
     <i name="WC">    100.00000000</i>
     <i type="int" name="INIMIX">     1</i>
     <i type="int" name="MIXPRE">     1</i>
     <i type="int" name="MREMOVE">     5</i>
    </separator>
   </separator>
   <separator name="electronic dipolcorrection" >
    <i type="logical" name="LDIPOL"> F  </i>
    <i type="logical" name="LMONO"> F  </i>
    <i type="int" name="IDIPOL">     0</i>
    <i name="EPSILON">      1.00000000</i>
    <v name="DIPOL">   -100.00000000   -100.00000000   -100.00000000</v>
    <i name="EFIELD">      0.00000000</i>
   </separator>
  </separator>
  <separator name="grids" >
   <i type="int" name="NGX">    70</i>
   <i type="int" name="NGY">    60</i>
   <i type="int" name="NGZ">    70</i>
   <i type="int" name="NGXF">   140</i>
   <i type="int" name="NGYF">   120</i>
   <i type="int" name="NGZF">   140</i>
   <i type="logical" name="ADDGRID"> F  </i>
  </separator>
  <separator name="ionic" >
   <i type="int" name="NSW">   200</i>
   <i type="int" name="IBRION">     2</i>
   <i type="int" name="MDALGO">     0</i>
   <i type="int" name="ISIF">     3</i>
   <i name="PSTRESS">      0.00000000</i>
   <i name="EDIFFG">     -0.01000000</i>
   <i type="int" name="NFREE">    10</i>
   <i name="POTIM">      0.50000000</i>
   <i name="SMASS">     -3.00000000</i>
   <i name="SCALEE">      1.00000000</i>
  </separator>
  <separator name="ionic md" >
   <i name="TEBEG">      0.00010000</i>
   <i name="TEEND">      0.00010000</i>
   <i type="int" name="NBLOCK">     1</i>
   <i type="int" name="KBLOCK">   200</i>
   <i type="int" name="NPACO">   256</i>
   <i name="APACO">     16.00000000</i>
  </separator>
  <separator name="symmetry" >
   <i type="int" name="ISYM">     2</i>
   <i name="SYMPREC">      0.00001000</i>
  </separator>
  <separator name="dos" >
   <i type="int" name="LORBIT">     0</i>
   <v name="RWIGS">     -1.00000000     -1.00000000     -1.00000000     -1.00000000     -1.00000000</v>
   <i type="int" name="NEDOS">   301</i>
   <i name="EMIN">     10.00000000</i>
   <i name="EMAX">    -10.00000000</i>
   <i name="EFERMI">      0.00000000</i>
  </separator>
  <separator name="writing" >
   <i type="int" name="NWRITE">     2</i>
   <i type="logical" name="LWAVE"> F  </i>
   <i type="logical" name="LDOWNSAMPLE"> F  </i>
   <i type="logical" name="LCHARG"> F  </i>
   <i type="logical" name="LPARD"> F  </i>
   <i type="logical" name="LVTOT"> F  </i>
   <i type="logical" name="LVHAR"> F  </i>
   <i type="logical" name="LELF"> F  </i>
   <i type="logical" name="LOPTICS"> F  </i>
   <v name="STM">      0.00000000      0.00000000      0.00000000      0.00000000      0.00000000      0.00000000      0.00000000</v>
  </separator>
  <separator name="performance" >
   <i type="int" name="NPAR">    28</i>
   <i type="int" name="NSIM">     4</i>
   <i type="int" name="NBLK">    -1</i>
   <i type="logical" name="LPLANE"> T  </i>
   <i type="logical" name="LSCALAPACK"> T  </i>
   <i type="logical" name="LSCAAWARE"> F  </i>
   <i type="logical" name="LSCALU"> F  </i>
   <i type="logical" name="LASYNC"> F  </i>
   <i type="logical" name="LORBITALREAL"> F  </i>
  </separator>
  <separator name="miscellaneous" >
   <i type="int" name="IDIOT">     3</i>
   <i type="int" name="ISPECIAL">     0</i>
   <i type="logical" name="LMUSIC"> F  </i>
   <v name="POMASS">      7.01000000     24.30500000    208.98000000     32.06600000     16.00000000</v>
   <v name="DARWINR">      0.00000000      0.00000000      0.00000000      0.00000000      0.00000000</v>
   <v name="DARWINV">      1.00000000      1.00000000      1.00000000      1.00000000      1.00000000</v>
   <i type="logical" name="LCORR"> T  </i>
  </separator>
  <i type="logical" name="GGA_COMPAT"> T  </i>
  <i type="logical" name="LBERRY"> F  </i>
  <i type="int" name="ICORELEVEL">     0</i>
  <i type="logical" name="LDAU"> F  </i>
  <i type="int" name="I_CONSTRAINED_M">     0</i>
  <separator name="electronic exchange-correlation" >
   <i type="string" name="GGA">--</i>
   <i type="int" name="VOSKOWN">     0</i>
   <i type="logical" name="LHFCALC"> F  </i>
   <i type="string" name="PRECFOCK"></i>
   <i type="logical" name="LSYMGRAD"> F  </i>
   <i type="logical" name="LHFONE"> F  </i>
   <i type="logical" name="LRHFCALC"> F  </i>
   <i type="logical" name="LTHOMAS"> F  </i>
   <i type="logical" name="LMODELHF"> F  </i>
   <i name="ENCUT4O">     -1.00000000</i>
   <i type="int" name="EXXOEP">     0</i>
   <i type="int" name="FOURORBIT">     0</i>
   <i name="AEXX">      0.00000000</i>
   <i name="HFALPHA">      0.00000000</i>
   <i name="MCALPHA">      0.00000000</i>
   <i name="ALDAX">      1.00000000</i>
   <i name="AGGAX">      1.00000000</i>
   <i name="ALDAC">      1.00000000</i>
   <i name="AGGAC">      1.00000000</i>
   <i type="int" name="NKREDX">     1</i>
   <i type="int" name="NKREDY">     1</i>
   <i type="int" name="NKREDZ">     1</i>
   <i type="logical" name="SHIFTRED"> F  </i>
   <i type="logical" name="ODDONLY"> F  </i>
   <i type="logical" name="EVENONLY"> F  </i>
   <i type="int" name="LMAXFOCK">     0</i>
   <i type="int" name="NMAXFOCKAE">     0</i>
   <i type="logical" name="LFOCKAEDFT"> F  </i>
   <i name="HFSCREEN">      0.00000000</i>
   <i name="HFSCREENC">      0.00000000</i>
   <i type="int" name="NBANDSGWLOW">     0</i>
  </separator>
  <separator name="vdW DFT" >
   <i type="logical" name="LUSE_VDW"> F  </i>
   <i name="Zab_VDW">     -0.84910000</i>
   <i name="PARAM1">      0.12340000</i>
   <i name="PARAM2">      1.00000000</i>
   <i name="PARAM3">      0.00000000</i>
  </separator>
  <separator name="model GW" >
   <i type="int" name="MODEL_GW">     0</i>
   <i name="MODEL_EPS0">     12.17134107</i>
   <i name="MODEL_ALPHA">      1.00000000</i>
  </separator>
  <separator name="linear response parameters" >
   <i type="logical" name="LEPSILON"> F  </i>
   <i type="logical" name="LRPA"> F  </i>
   <i type="logical" name="LNABLA"> F  </i>
   <i type="logical" name="LVEL"> F  </i>
   <i type="int" name="KINTER">     0</i>
   <i name="CSHIFT">      0.10000000</i>
   <i name="OMEGAMAX">     -1.00000000</i>
   <i name="DEG_THRESHOLD">      0.00200000</i>
   <i name="RTIME">     -0.10000000</i>
   <i name="WPLASMAI">      0.00000000</i>
   <v name="DFIELD">      0.00000000      0.00000000      0.00000000</v>
   <v name="WPLASMA">      0.00000000      0.00000000      0.00000000      0.00000000      0.00000000      0.00000000      0.00000000      0.00000000      0.00000000</v>
  </separator>
  <separator name="orbital magnetization" >
   <i type="logical" name="NUCIND"> F  </i>
   <v name="MAGPOS">      0.00000000      0.00000000      0.00000000</v>
   <i type="logical" name="LNICSALL"> T  </i>
   <i type="logical" name="ORBITALMAG"> F  </i>
   <i type="logical" name="LMAGBLOCH"> F  </i>
   <i type="logical" name="LCHIMAG"> F  </i>
   <i type="logical" name="LGAUGE"> T  </i>
   <i type="int" name="MAGATOM">     0</i>
   <v name="MAGDIPOL">      0.00000000      0.00000000      0.00000000</v>
   <v name="AVECCONST">      0.00000000      0.00000000      0.00000000</v>
  </separator>
  <separator name="response functions" >
   <i type="logical" name="LADDER"> F  </i>
   <i type="logical" name="LRPAFORCE"> F  </i>
   <i type="logical" name="LFXC"> F  </i>
   <i type="logical" name="LHARTREE"> T  </i>
   <i type="int" name="IBSE">     0</i>
   <v type="int" name="KPOINT">    -1     0     0     0</v>
   <i type="logical" name="LTCTE"> F  </i>
   <i type="logical" name="LTETE"> F  </i>
   <i type="logical" name="LTRIPLET"> F  </i>
   <i type="logical" name="LFXCEPS"> F  </i>
   <i type="logical" name="LFXHEG"> F  </i>
   <i type="int" name="NATURALO">     2</i>
   <i type="logical" name="L2ORDER"> F  </i>
   <i type="logical" name="LMP2LT"> F  </i>
   <i type="logical" name="LUSEW"> F  </i>
   <i name="ENCUTGW">     -2.00000000</i>
   <i name="ENCUTGWSOFT">     -2.00000000</i>
   <i name="ENCUTLF">     -1.00000000</i>
   <i type="int" name="LMAXMP2">    -1</i>
   <i name="SCISSOR">      0.00000000</i>
   <i type="int" name="NOMEGA">     0</i>
   <i type="int" name="NOMEGAR">     0</i>
   <i type="int" name="NBANDSGW">    -1</i>
   <i type="int" name="NBANDSO">    -1</i>
   <i type="int" name="NBANDSV">    -1</i>
   <i type="int" name="NELM">     1</i>
   <i type="int" name="NELMHF">     1</i>
   <i type="int" name="DIM">     3</i>
   <i type="int" name="ANTIRES">     0</i>
   <i name="OMEGAMAX">    -30.00000000</i>
   <i name="OMEGAMIN">    -30.00000000</i>
   <i name="OMEGATL">   -200.00000000</i>
   <i type="int" name="OMEGAGRID">   140</i>
   <i name="CSHIFT">     -0.10000000</i>
   <i type="logical" name="SELFENERGY"> F  </i>
   <i type="logical" name="LSPECTRAL"> F  </i>
   <i type="logical" name="LSPECTRALGW"> F  </i>
   <i type="logical" name="LSINGLES"> F  </i>
   <i type="logical" name="LFERMIGW"> F  </i>
   <i type="logical" name="ODDONLYGW"> F  </i>
   <i type="logical" name="EVENONLYGW"> F  </i>
   <i type="int" name="NKREDLFX">     1</i>
   <i type="int" name="NKREDLFY">     1</i>
   <i type="int" name="NKREDLFZ">     1</i>
   <i type="int" name="MAXMEM">  2800</i>
   <i type="int" name="TELESCOPE">     0</i>
   <i type="int" name="TAUPAR">     1</i>
   <i type="int" name="OMEGAPAR">    -1</i>
   <i name="LAMBDA">      1.00000000</i>
  </separator>
  <separator name="External order field" >
   <i name="OFIELD_KAPPA">      0.00000000</i>
   <v name="OFIELD_K">      0.00000000      0.00000000      0.00000000</v>
   <i name="OFIELD_Q6_NEAR">      0.00000000</i>
   <i name="OFIELD_Q6_FAR">      0.00000000</i>
   <i name="OFIELD_A">      0.00000000</i>
  </separator>
 </parameters>
 <atominfo>
  <atoms>      59 </atoms>
  <types>       5 </types>
  <array name="atoms" >
   <dimension dim="1">ion</dimension>
   <field type="string">element</field>
   <field type="int">atomtype</field>
   <set>
    <rc><c>Li</c><c>   1</c></rc>
    <rc><c>Li</c><c>   1</c></rc>
    <rc><c>Li</c><c>   1</c></rc>
    <rc><c>Li</c><c>   1</c></rc>
    <rc><c>Li</c><c>   1</c></rc>
    <rc><c>Li</c><c>   1</c></rc>
    <rc><c>Mg</c><c>   2</c></rc>
    <rc><c>Mg</c><c>   2</c></rc>
    <rc><c>Mg</c><c>   2</c></rc>
    <rc><c>Mg</c><c>   2</c></rc>
    <rc><c>Mg</c><c>   2</c></rc>
    <rc><c>Bi</c><c>   3</c></rc>
    <rc><c>Bi</c><c>   3</c></rc>
    <rc><c>Bi</c><c>   3</c></rc>
    <rc><c>Bi</c><c>   3</c></rc>
    <rc><c>Bi</c><c>   3</c></rc>
    <rc><c>Bi</c><c>   3</c></rc>
    <rc><c>Bi</c><c>   3</c></rc>
    <rc><c>Bi</c><c>   3</c></rc>
    <rc><c>Bi</c><c>   3</c></rc>
    <rc><c>Bi</c><c>   3</c></rc>
    <rc><c>Bi</c><c>   3</c></rc>
    <rc><c>Bi</c><c>   3</c></rc>
    <rc><c>Bi</c><c>   3</c></rc>
    <rc><c>Bi</c><c>   3</c></rc>
    <rc><c>Bi</c><c>   3</c></rc>
    <rc><c>Bi</c><c>   3</c></rc>
    <rc><c>S </c><c>   4</c></rc>
    <rc><c>S </c><c>   4</c></rc>
    <rc><c>S </c><c>   4</c></rc>
    <rc><c>S </c><c>   4</c></rc>
    <rc><c>S </c><c>   4</c></rc>
    <rc><c>S </c><c>   4</c></rc>
    <rc><c>S </c><c>   4</c></rc>
    <rc><c>S </c><c>   4</c></rc>
    <rc><c>S </c><c>   4</c></rc>
    <rc><c>S </c><c>   4</c></rc>
    <rc><c>S </c><c>   4</c></rc>
    <rc><c>S </c><c>   4</c></rc>
    <rc><c>S </c><c>   4</c></rc>
    <rc><c>S </c><c>   4</c></rc>
    <rc><c>S </c><c>   4</c></rc>
    <rc><c>S </c><c>   4</c></rc>
    <rc><c>O </c><c>   5</c></rc>
    <rc><c>O </c><c>   5</c></rc>
    <rc><c>O </c><c>   5</c></rc>
    <rc><c>O </c><c>   5</c></rc>
    <rc><c>O </c><c>   5</c></rc>
    <rc><c>O </c><c>   5</c></rc>
    <rc><c>O </c><c>   5</c></rc>
    <rc><c>O </c><c>   5</c></rc>
    <rc><c>O </c><c>   5</c></rc>
    <rc><c>O </c><c>   5</c></rc>
    <rc><c>O </c><c>   5</c></rc>
    <rc><c>O </c><c>   5</c></rc>
    <rc><c>O </c><c>   5</c></rc>
    <rc><c>O </c><c>   5</c></rc>
    <rc><c>O </c><c>   5</c></rc>
    <rc><c>O </c><c>   5</c></rc>
   </set>
  </array>
  <array name="atomtypes" >
   <dimension dim="1">type</dimension>
   <field type="int">atomspertype</field>
   <field type="string">element</field>
   <field>mass</field>
   <field>valence</field>
   <field type="string">pseudopotential</field>
   <set>
    <rc><c>   6</c><c>Li</c><c>      7.01000000</c><c>      3.00000000</c><c>  PAW_PBE Li_sv 10Sep2004               </c></rc>
    <rc><c>   5</c><c>Mg</c><c>     24.30500000</c><c>      2.00000000</c><c>  PAW_PBE Mg 13Apr2007                  </c></rc>
    <rc><c>  16</c><c>Bi</c><c>    208.98000000</c><c>     15.00000000</c><c>  PAW_PBE Bi_d 06Sep2000                </c></rc>
    <rc><c>  16</c><c>S </c><c>     32.06600000</c><c>      6.00000000</c><c>  PAW_PBE S 06Sep2000                   </c></rc>
    <rc><c>  16</c><c>O </c><c>     16.00000000</c><c>      6.00000000</c><c>  PAW_PBE O 08Apr2002                   </c></rc>
   </set>
  </array>
 </atominfo>
 <structure name="initialpos" >
  <crystal>
   <varray name="basis" >
    <v>      11.17850000       0.00000000       0.00000000 </v>
    <v>       0.00000000       9.57460000       0.00000000 </v>
    <v>       0.00000000       0.00000000      11.18240000 </v>
   </varray>
   <i name="volume">   1196.84853820 </i>
   <varray name="rec_basis" >
    <v>       0.08945744       0.00000000       0.00000000 </v>
    <v>       0.00000000       0.10444301       0.00000000 </v>
    <v>       0.00000000       0.00000000       0.08942624 </v>
   </varray>
  </crystal>
  <varray name="positions" >
   <v>       0.12461000       0.99984000       0.18687000 </v>
   <v>       0.62539000       0.99984000       0.43687000 </v>
   <v>       0.62461000       0.99984000       0.18687000 </v>
   <v>       0.12461000       0.99984000       0.68687000 </v>
   <v>       0.62539000       0.99984000       0.93687000 </v>
   <v>       0.87539000       0.00017000       0.93687000 </v>
   <v>       0.37461000       0.00017000       0.18687000 </v>
   <v>       0.87461000       0.00017000       0.18687000 </v>
   <v>       0.37461000       0.00017000       0.68687000 </v>
   <v>       0.62461000       0.99984000       0.68687000 </v>
   <v>       0.87461000       0.00017000       0.68687000 </v>
   <v>       0.00013000       0.29519000       0.06281000 </v>
   <v>       0.25013000       0.70481000       0.06281000 </v>
   <v>       0.24987000       0.29519000       0.31282000 </v>
   <v>       0.49987000       0.70481000       0.31282000 </v>
   <v>       0.50013000       0.29519000       0.06281000 </v>
   <v>       0.75013000       0.70481000       0.06281000 </v>
   <v>       0.74987000       0.29519000       0.31282000 </v>
   <v>       0.99987000       0.70481000       0.31282000 </v>
   <v>       0.00013000       0.29519000       0.56281000 </v>
   <v>       0.25013000       0.70481000       0.56281000 </v>
   <v>       0.24987000       0.29519000       0.81282000 </v>
   <v>       0.49987000       0.70481000       0.81282000 </v>
   <v>       0.50013000       0.29519000       0.56281000 </v>
   <v>       0.75013000       0.70481000       0.56281000 </v>
   <v>       0.74987000       0.29519000       0.81282000 </v>
   <v>       0.99987000       0.70481000       0.81282000 </v>
   <v>       0.25005000       0.32677000       0.06286000 </v>
   <v>       0.00005000       0.67323000       0.06286000 </v>
   <v>       0.49995000       0.32677000       0.31286000 </v>
   <v>       0.24995000       0.67323000       0.31286000 </v>
   <v>       0.75005000       0.32677000       0.06286000 </v>
   <v>       0.50005000       0.67323000       0.06286000 </v>
   <v>       0.99995000       0.32677000       0.31286000 </v>
   <v>       0.74995000       0.67323000       0.31286000 </v>
   <v>       0.25005000       0.32677000       0.56286000 </v>
   <v>       0.00005000       0.67323000       0.56286000 </v>
   <v>       0.49995000       0.32677000       0.81286000 </v>
   <v>       0.24995000       0.67323000       0.81286000 </v>
   <v>       0.75005000       0.32677000       0.56286000 </v>
   <v>       0.50005000       0.67323000       0.56286000 </v>
   <v>       0.99995000       0.32677000       0.81286000 </v>
   <v>       0.74995000       0.67323000       0.81286000 </v>
   <v>       0.49987000       0.07798000       0.06246000 </v>
   <v>       0.24987000       0.92202000       0.06246000 </v>
   <v>       0.25013000       0.07798000       0.31246000 </v>
   <v>       0.00013000       0.92202000       0.31246000 </v>
   <v>       0.99987000       0.07798000       0.06246000 </v>
   <v>       0.74987000       0.92202000       0.06246000 </v>
   <v>       0.75013000       0.07798000       0.31246000 </v>
   <v>       0.50013000       0.92202000       0.31246000 </v>
   <v>       0.49987000       0.07798000       0.56246000 </v>
   <v>       0.24987000       0.92202000       0.56246000 </v>
   <v>       0.25013000       0.07798000       0.81246000 </v>
   <v>       0.00013000       0.92202000       0.81246000 </v>
   <v>       0.99987000       0.07798000       0.56246000 </v>
   <v>       0.74987000       0.92202000       0.56246000 </v>
   <v>       0.75013000       0.07798000       0.81246000 </v>
   <v>       0.50013000       0.92202000       0.81246000 </v>
  </varray>
 </structure>
 <calculation>
  <scstep>
   <time name="dav">   60.44   60.50</time>
   <time name="total">   60.52   60.59</time>
   <energy>
    <i name="alphaZ">   1060.66890660 </i>
    <i name="ewald"> -30410.50092429 </i>
    <i name="hartreedc"> -12706.30829425 </i>
    <i name="XCdc">   1247.31786431 </i>
    <i name="pawpsdc">  36635.26894311 </i>
    <i name="pawaedc"> -35972.74895369 </i>
    <i name="eentropy">      0.00000000 </i>
    <i name="bandstr">   1869.49895832 </i>
    <i name="atom">  44026.03258983 </i>
    <i name="e_fr_energy">   5749.22908994 </i>
    <i name="e_wo_entrp">   5749.22908994 </i>
    <i name="e_0_energy">   5749.22908994 </i>
   </energy>
  </scstep>
  <scstep>
   <time name="dav">   61.00   61.02</time>
   <time name="total">   61.01   61.03</time>
   <energy>
    <i name="e_fr_energy">    765.30161069 </i>
    <i name="e_wo_entrp">    765.30161069 </i>
    <i name="e_0_energy">    765.30161069 </i>
   </energy>
  </scstep>
  <scstep>
   <time name="dav">   71.05   71.04</time>
   <time name="total">   71.05   71.04</time>
   <energy>
    <i name="e_fr_energy">   -242.41188857 </i>
    <i name="e_wo_entrp">   -242.41188857 </i>
    <i name="e_0_energy">   -242.41188857 </i>
   </energy>
  </scstep>
  <scstep>
   <time name="dav">   72.83   72.85</time>
   <time name="total">   72.84   72.85</time>
   <energy>
    <i name="e_fr_energy">   -334.62872543 </i>
    <i name="e_wo_entrp">   -334.62872543 </i>
    <i name="e_0_energy">   -334.62872543 </i>
   </energy>
  </scstep>
  <scstep>
   <time name="dav">   95.47   95.51</time>
   <time name="total">   96.19   96.23</time>
   <energy>
    <i name="e_fr_energy">   -341.70967822 </i>
    <i name="e_wo_entrp">   -341.70967822 </i>
    <i name="e_0_energy">   -341.70967822 </i>
   </energy>
  </scstep>
  <scstep>
   <time name="dav">   86.50   86.66</time>
   <time name="total">   87.28   87.45</time>
   <energy>
    <i name="e_fr_energy">   -286.64370690 </i>
    <i name="e_wo_entrp">   -286.64370690 </i>
    <i name="e_0_energy">   -286.64370690 </i>
   </energy>
  </scstep>
  <scstep>
   <time name="dav">   66.29   66.32</time>
   <time name="total">   67.07   67.11</time>
   <energy>
    <i name="e_fr_energy">   -288.86316594 </i>
    <i name="e_wo_entrp">   -288.86316594 </i>
    <i name="e_0_energy">   -288.86316594 </i>
   </energy>
  </scstep>
  <scstep>
   <time name="dav">   78.90   79.19</time>
   <time name="total">   79.68   79.98</time>
   <energy>
    <i name="e_fr_energy">   -287.85190396 </i>
    <i name="e_wo_entrp">   -287.85190396 </i>
    <i name="e_0_energy">   -287.85190396 </i>
   </energy>
  </scstep>
  <scstep>
   <time name="dav">   77.27   77.31</time>
   <time name="total">   78.05   78.10</time>
   <energy>
    <i name="e_fr_energy">   -287.36129235 </i>
    <i name="e_wo_entrp">   -287.36129235 </i>
    <i name="e_0_energy">   -287.36129235 </i>
   </energy>
  </scstep>
  <scstep>
   <time name="dav">   74.71   74.76</time>
   <time name="total">   75.50   75.56</time>
   <energy>
    <i name="e_fr_energy">   -287.38445125 </i>
    <i name="e_wo_entrp">   -287.38445125 </i>
    <i name="e_0_energy">   -287.38445125 </i>
   </energy>
  </scstep>
  <scstep>
   <time name="dav">   78.59   78.68</time>
   <time name="total">   79.37   79.46</time>
   <energy>
    <i name="e_fr_energy">   -287.38635120 </i>
    <i name="e_wo_entrp">   -287.38635120 </i>
    <i name="e_0_energy">   -287.38635120 </i>
   </energy>
  </scstep>
  <scstep>
   <time name="dav">   73.29   73.31</time>
   <time name="total">   74.08   74.10</time>
   <energy>
    <i name="e_fr_energy">   -287.39039743 </i>
    <i name="e_wo_entrp">   -287.39039743 </i>
    <i name="e_0_energy">   -287.39039743 </i>
   </energy>
  </scstep>
  <scstep>
   <time name="dav">   72.28   72.30</time>
   <time name="total">   73.06   73.09</time>
   <energy>
    <i name="e_fr_energy">   -287.39103034 </i>
    <i name="e_wo_entrp">   -287.39103034 </i>
    <i name="e_0_energy">   -287.39103034 </i>
   </energy>
  </scstep>
  <scstep>
   <time name="dav">   75.63   75.70</time>
   <time name="total">   76.42   76.49</time>
   <energy>
    <i name="e_fr_energy">   -287.39139723 </i>
    <i name="e_wo_entrp">   -287.39139723 </i>
    <i name="e_0_energy">   -287.39139723 </i>
   </energy>
  </scstep>
  <scstep>
   <time name="dav">   87.99   88.49</time>
   <time name="total">   88.78   89.28</time>
   <energy>
    <i name="e_fr_energy">   -287.39141071 </i>
    <i name="e_wo_entrp">   -287.39141071 </i>
    <i name="e_0_energy">   -287.39141071 </i>
   </energy>
  </scstep>
  <scstep>
   <time name="dav">   68.47   68.57</time>
   <time name="total">   69.26   69.37</time>
   <energy>
    <i name="e_fr_energy">   -287.39142912 </i>
    <i name="e_wo_entrp">   -287.39142912 </i>
    <i name="e_0_energy">   -287.39142912 </i>
   </energy>
  </scstep>
  <scstep>
   <time name="dav">   71.13   71.25</time>
   <time name="total">   71.91   72.04</time>
   <energy>
    <i name="e_fr_energy">   -287.39143184 </i>
    <i name="e_wo_entrp">   -287.39143184 </i>
    <i name="e_0_energy">   -287.39143184 </i>
   </energy>
  </scstep>
  <scstep>
   <time name="dav">   51.18   51.33</time>
   <time name="total">   51.25   51.41</time>
   <energy>
    <i name="alphaZ">   1060.66890660 </i>
    <i name="ewald"> -30410.50092429 </i>
    <i name="hartreedc"> -12933.41793997 </i>
    <i name="XCdc">   1271.65510741 </i>
    <i name="pawpsdc">  43630.27451090 </i>
    <i name="pawaedc"> -42940.74936175 </i>
    <i name="eentropy">      0.00000000 </i>
    <i name="bandstr">  -3991.35432068 </i>
    <i name="atom">  44026.03258983 </i>
    <i name="e_fr_energy">   -287.39143196 </i>
    <i name="e_wo_entrp">   -287.39143196 </i>
    <i name="e_0_energy">   -287.39143196 </i>
   </energy>
  </scstep>
  <structure>
   <crystal>
    <varray name="basis" >
     <v>      11.17850000       0.00000000       0.00000000 </v>
     <v>       0.00000000       9.57460000       0.00000000 </v>
     <v>       0.00000000       0.00000000      11.18240000 </v>
    </varray>
    <i name="volume">   1196.84853820 </i>
    <varray name="rec_basis" >
     <v>       0.08945744       0.00000000       0.00000000 </v>
     <v>       0.00000000       0.10444301       0.00000000 </v>
     <v>       0.00000000       0.00000000       0.08942624 </v>
    </varray>
   </crystal>
   <varray name="positions" >
    <v>       0.12461000       0.99984000       0.18687000 </v>
    <v>       0.62539000       0.99984000       0.43687000 </v>
    <v>       0.62461000       0.99984000       0.18687000 </v>
    <v>       0.12461000       0.99984000       0.68687000 </v>
    <v>       0.62539000       0.99984000       0.93687000 </v>
    <v>       0.87539000       0.00017000       0.93687000 </v>
    <v>       0.37461000       0.00017000       0.18687000 </v>
    <v>       0.87461000       0.00017000       0.18687000 </v>
    <v>       0.37461000       0.00017000       0.68687000 </v>
    <v>       0.62461000       0.99984000       0.68687000 </v>
    <v>       0.87461000       0.00017000       0.68687000 </v>
    <v>       0.00013000       0.29519000       0.06281000 </v>
    <v>       0.25013000       0.70481000       0.06281000 </v>
    <v>       0.24987000       0.29519000       0.31282000 </v>
    <v>       0.49987000       0.70481000       0.31282000 </v>
    <v>       0.50013000       0.29519000       0.06281000 </v>
    <v>       0.75013000       0.70481000       0.06281000 </v>
    <v>       0.74987000       0.29519000       0.31282000 </v>
    <v>       0.99987000       0.70481000       0.31282000 </v>
    <v>       0.00013000       0.29519000       0.56281000 </v>
    <v>       0.25013000       0.70481000       0.56281000 </v>
    <v>       0.24987000       0.29519000       0.81282000 </v>
    <v>       0.49987000       0.70481000       0.81282000 </v>
    <v>       0.50013000       0.29519000       0.56281000 </v>
    <v>       0.75013000       0.70481000       0.56281000 </v>
    <v>       0.74987000       0.29519000       0.81282000 </v>
    <v>       0.99987000       0.70481000       0.81282000 </v>
    <v>       0.25005000       0.32677000       0.06286000 </v>
    <v>       0.00005000       0.67323000       0.06286000 </v>
    <v>       0.49995000       0.32677000       0.31286000 </v>
    <v>       0.24995000       0.67323000       0.31286000 </v>
    <v>       0.75005000       0.32677000       0.06286000 </v>
    <v>       0.50005000       0.67323000       0.06286000 </v>
    <v>       0.99995000       0.32677000       0.31286000 </v>
    <v>       0.74995000       0.67323000       0.31286000 </v>
    <v>       0.25005000       0.32677000       0.56286000 </v>
    <v>       0.00005000       0.67323000       0.56286000 </v>
    <v>       0.49995000       0.32677000       0.81286000 </v>
    <v>       0.24995000       0.67323000       0.81286000 </v>
    <v>       0.75005000       0.32677000       0.56286000 </v>
    <v>       0.50005000       0.67323000       0.56286000 </v>
    <v>       0.99995000       0.32677000       0.81286000 </v>
    <v>       0.74995000       0.67323000       0.81286000 </v>
    <v>       0.49987000       0.07798000       0.06246000 </v>
    <v>       0.24987000       0.92202000       0.06246000 </v>
    <v>       0.25013000       0.07798000       0.31246000 </v>
    <v>       0.00013000       0.92202000       0.31246000 </v>
    <v>       0.99987000       0.07798000       0.06246000 </v>
    <v>       0.74987000       0.92202000       0.06246000 </v>
    <v>       0.75013000       0.07798000       0.31246000 </v>
    <v>       0.50013000       0.92202000       0.31246000 </v>
    <v>       0.49987000       0.07798000       0.56246000 </v>
    <v>       0.24987000       0.92202000       0.56246000 </v>
    <v>       0.25013000       0.07798000       0.81246000 </v>
    <v>       0.00013000       0.92202000       0.81246000 </v>
    <v>       0.99987000       0.07798000       0.56246000 </v>
    <v>       0.74987000       0.92202000       0.56246000 </v>
    <v>       0.75013000       0.07798000       0.81246000 </v>
    <v>       0.50013000       0.92202000       0.81246000 </v>
   </varray>
  </structure>
  <varray name="forces" >
   <v>       0.21116051      -0.06264881       0.20068692 </v>
   <v>      -0.03796250       0.00235674      -0.55020359 </v>
   <v>      -0.20514420       0.06559467       0.20882874 </v>
   <v>       0.21228892       0.06452689      -0.18218032 </v>
   <v>      -0.56336664       0.00228786       0.55370229 </v>
   <v>       0.69578210      -0.06703351       0.14068042 </v>
   <v>      -0.59544120      -0.00649856       0.08929313 </v>
   <v>       0.64773386       0.00547698       1.08601156 </v>
   <v>      -1.60669080       0.00155871      -0.01484499 </v>
   <v>      -0.29021549      -0.10612275      -0.24889985 </v>
   <v>       1.66117204      -0.00699340      -1.01494506 </v>
   <v>       0.54483411       0.03178667       0.00938185 </v>
   <v>      -0.19189094       1.02629418      -0.13606667 </v>
   <v>      -0.21357847      -1.04872251       0.25495588 </v>
   <v>      -0.39556044       0.01694393       0.08199952 </v>
   <v>      -0.43602759       0.00189674       0.03007984 </v>
   <v>       0.06799366      -1.08214894       0.19837705 </v>
   <v>       0.24998643       0.02812894       0.12444843 </v>
   <v>       0.37712178       1.03556611       0.28670908 </v>
   <v>       0.41812027      -0.95672177      -0.45560764 </v>
   <v>      -0.28749211       0.97375969      -0.42837579 </v>
   <v>      -0.23086415      -0.99149986       0.28714289 </v>
   <v>      -0.59488451      -1.07073567       0.35203458 </v>
   <v>      -0.56583814       1.09256186      -0.48495804 </v>
   <v>       0.39951563      -1.12836601      -0.52647541 </v>
   <v>       0.23607576       2.08262685       0.18330270 </v>
   <v>       0.61340433      -0.06750456       0.14426499 </v>
   <v>       0.12620885       0.20705028      -0.02290751 </v>
   <v>      -0.41205371      -0.18335035      -0.13933119 </v>
   <v>       0.20708243       0.16844485       0.04097717 </v>
   <v>       0.22760400      -0.23616625      -0.04362105 </v>
   <v>      -0.01554578       0.09841424      -0.19164181 </v>
   <v>       0.29444889      -0.12836785      -0.11451038 </v>
   <v>      -0.30479400       0.18326544      -0.16544095 </v>
   <v>      -0.12072611      -0.12167816      -0.05356904 </v>
   <v>       0.31943969       0.19893293       0.12493457 </v>
   <v>      -0.40135852      -0.14153210       0.24743592 </v>
   <v>       0.40213598       0.01120900      -0.18573011 </v>
   <v>       0.22273608      -0.17357909      -0.06363654 </v>
   <v>      -0.23954248      -0.00555833       0.33527062 </v>
   <v>       0.32920673      -0.04712395       0.26211928 </v>
   <v>      -0.48578843       0.14535669       0.04721309 </v>
   <v>      -0.13718321       0.01850941      -0.09222144 </v>
   <v>       0.48514274       0.01141518       0.90699385 </v>
   <v>       0.51388691      -0.87262988       1.49934628 </v>
   <v>       0.55276632       0.89836373      -1.57942364 </v>
   <v>      -0.67060176      -0.81068689      -1.68367805 </v>
   <v>      -1.36935406      -0.02146958       0.86166736 </v>
   <v>       0.35825119       0.87532667       0.20320853 </v>
   <v>      -0.30038877      -0.02055028      -1.11375179 </v>
   <v>       0.37886722      -0.06153256      -1.01821604 </v>
   <v>       0.91578397      -0.90748939       1.63575682 </v>
   <v>       0.64946719      -0.80644091       1.64007689 </v>
   <v>       0.59964465       0.78657847      -1.57742791 </v>
   <v>      -1.49017749       0.11661658      -0.95826360 </v>
   <v>      -0.73895978       0.71455176       1.73979863 </v>
   <v>      -0.80578376       0.99797082       1.74854084 </v>
   <v>      -0.20360717      -1.69164017      -0.91548548 </v>
   <v>       0.99295997       0.96141923      -1.56382579 </v>
  </varray>
  <varray name="stress" >
   <v>       3.03863209       0.10041680       0.22047230 </v>
   <v>       0.10041668     -13.60003383      -0.10495027 </v>
   <v>       0.22047255      -0.10495037     -12.76418722 </v>
  </varray>
  <energy>
   <i name="e_fr_energy">   -299.89826062 </i>
   <i name="e_wo_entrp">   -299.89826062 </i>
   <i name="e_0_energy">      0.00000000 </i>
  </energy>
  <time name="totalsc"> 1452.57 1454.56</time>
 </calculation>
 <calculation>
  <scstep>
   <time name="dav">   60.39   60.66</time>
   <time name="total">   61.17   61.45</time>
   <energy>
    <i name="alphaZ">   1075.96109560 </i>
    <i name="ewald"> -30526.84693288 </i>
    <i name="hartreedc"> -13006.30572897 </i>
    <i name="XCdc">   1280.09003204 </i>
    <i name="pawpsdc">  43629.75051538 </i>
    <i name="pawaedc"> -42940.22606113 </i>
    <i name="eentropy">      0.00000000 </i>
    <i name="bandstr">  -3825.41507545 </i>
    <i name="atom">  44026.03258983 </i>
    <i name="e_fr_energy">   -286.95956558 </i>
    <i name="e_wo_entrp">   -286.95956558 </i>
    <i name="e_0_energy">   -286.95956558 </i>
   </energy>
  </scstep>
  <scstep>
   <time name="dav">   69.54   70.19</time>
   <time name="total">   70.35   71.00</time>
   <energy>
    <i name="e_fr_energy">   -289.91715923 </i>
    <i name="e_wo_entrp">   -289.91715923 </i>
    <i name="e_0_energy">   -289.91715923 </i>
   </energy>
  </scstep>
  <scstep>
   <time name="dav">   81.09   81.27</time>
   <time name="total">   81.88   82.06</time>
   <energy>
    <i name="e_fr_energy">   -289.61644783 </i>
    <i name="e_wo_entrp">   -289.61644783 </i>
    <i name="e_0_energy">   -289.61644783 </i>
   </energy>
  </scstep>
  <scstep>
   <time name="dav">   78.36   78.54</time>
   <time name="total">   79.14   79.32</time>
   <energy>
    <i name="e_fr_energy">   -289.44016071 </i>
    <i name="e_wo_entrp">   -289.44016071 </i>
    <i name="e_0_energy">   -289.44016071 </i>
   </energy>
  </scstep>
  <scstep>
   <time name="dav">   73.83   73.98</time>
   <time name="total">   74.64   74.79</time>
   <energy>
    <i name="e_fr_energy">   -289.43575280 </i>
    <i name="e_wo_entrp">   -289.43575280 </i>
    <i name="e_0_energy">   -289.43575280 </i>
   </energy>
  </scstep>
  <scstep>
   <time name="dav">   80.53   80.83</time>
   <time name="total">   81.40   81.70</time>
   <energy>
    <i name="e_fr_energy">   -289.43402897 </i>
    <i name="e_wo_entrp">   -289.43402897 </i>
    <i name="e_0_energy">   -289.43402897 </i>
   </energy>
  </scstep>
  <scstep>
   <time name="dav">   69.05   69.14</time>
   <time name="total">   69.84   69.93</time>
   <energy>
    <i name="e_fr_energy">   -289.43293701 </i>
    <i name="e_wo_entrp">   -289.43293701 </i>
    <i name="e_0_energy">   -289.43293701 </i>
   </energy>
  </scstep>
  <scstep>
   <time name="dav">   96.20   96.60</time>
   <time name="total">   96.99   97.39</time>
   <energy>
    <i name="e_fr_energy">   -289.43288296 </i>
    <i name="e_wo_entrp">   -289.43288296 </i>
    <i name="e_0_energy">   -289.43288296 </i>
   </energy>
  </scstep>
  <scstep>
   <time name="dav">   72.01   72.09</time>
   <time name="total">   72.80   72.88</time>
   <energy>
    <i name="e_fr_energy">   -289.43291618 </i>
    <i name="e_wo_entrp">   -289.43291618 </i>
    <i name="e_0_energy">   -289.43291618 </i>
   </energy>
  </scstep>
  <scstep>
   <time name="dav">   86.15   86.65</time>
   <time name="total">   86.94   87.44</time>
   <energy>
    <i name="e_fr_energy">   -289.43292303 </i>
    <i name="e_wo_entrp">   -289.43292303 </i>
    <i name="e_0_energy">   -289.43292303 </i>
   </energy>
  </scstep>
  <scstep>
   <time name="dav">   68.85   69.41</time>
   <time name="total">   69.65   70.22</time>
   <energy>
    <i name="e_fr_energy">   -289.43292366 </i>
    <i name="e_wo_entrp">   -289.43292366 </i>
    <i name="e_0_energy">   -289.43292366 </i>
   </energy>
  </scstep>
  <scstep>
   <time name="dav">   71.36   71.60</time>
   <time name="total">   71.44   71.67</time>
   <energy>
    <i name="alphaZ">   1075.96109560 </i>
    <i name="ewald"> -30526.84693288 </i>
    <i name="hartreedc"> -12884.73173045 </i>
    <i name="XCdc">   1274.82185579 </i>
    <i name="pawpsdc">  43976.19077262 </i>
    <i name="pawaedc"> -43289.04424685 </i>
    <i name="eentropy">      0.00000000 </i>
    <i name="bandstr">  -3941.81632731 </i>
    <i name="atom">  44026.03258983 </i>
    <i name="e_fr_energy">   -289.43292365 </i>
    <i name="e_wo_entrp">   -289.43292365 </i>
    <i name="e_0_energy">   -289.43292365 </i>
   </energy>
  </scstep>
  <structure>
   <crystal>
    <varray name="basis" >
     <v>      11.19924768       0.00068564       0.00150538 </v>
     <v>       0.00058727       9.49506314      -0.00061378 </v>
     <v>       0.00150590      -0.00071685      11.09521616 </v>
    </varray>
    <i name="volume">   1179.83822609 </i>
    <varray name="rec_basis" >
     <v>       0.08929171      -0.00000552      -0.00001212 </v>
     <v>      -0.00000645       0.10531789       0.00000681 </v>
     <v>      -0.00001212       0.00000583       0.09012894 </v>
    </varray>
   </crystal>
   <varray name="positions" >
    <v>       0.12552130       0.99952434       0.18773580 </v>
    <v>       0.62522617       0.99985187       0.43449633 </v>
    <v>       0.62372467       0.00017051       0.18777092 </v>
    <v>       0.12552617       0.00016513       0.68608405 </v>
    <v>       0.62295870       0.99985153       0.93925876 </v>
    <v>       0.87839276      -0.00016776       0.93747692 </v>
    <v>       0.37204028       0.00013726       0.18725522 </v>
    <v>       0.87740540       0.00019760       0.19155523 </v>
    <v>       0.36767606       0.00017785       0.68680596 </v>
    <v>       0.62335753       0.99930529       0.68579621 </v>
    <v>       0.88177906       0.00013476       0.68249137 </v>
    <v>       0.00248132       0.29535016       0.06285047 </v>
    <v>       0.24930186       0.70998109       0.06222299 </v>
    <v>       0.24894827       0.28990590       0.31391992 </v>
    <v>       0.49816289       0.70489537       0.31317376 </v>
    <v>       0.49824825       0.29519956       0.06293977 </v>
    <v>       0.75042344       0.69935748       0.06366583 </v>
    <v>       0.75094886       0.29533173       0.31335689 </v>
    <v>       0.00149753       0.71002781       0.31405691 </v>
    <v>       0.00193447       0.29036945       0.56084444 </v>
    <v>       0.24888928       0.70971639       0.56096192 </v>
    <v>       0.24887367       0.29019422       0.81405878 </v>
    <v>       0.49730268       0.69941498       0.81433873 </v>
    <v>       0.49768803       0.30069499       0.56071781 </v>
    <v>       0.75185418       0.69912461       0.56053870 </v>
    <v>       0.75088882       0.30568354       0.81361080 </v>
    <v>       0.00251725       0.70446987       0.81344238 </v>
    <v>       0.25059468       0.32781325       0.06276117 </v>
    <v>      -0.00172829       0.67230617       0.06225890 </v>
    <v>       0.50084370       0.32761873       0.31303678 </v>
    <v>       0.25093226       0.67204005       0.31267181 </v>
    <v>       0.74998291       0.32726587       0.06203323 </v>
    <v>       0.50132074       0.67258320       0.06236598 </v>
    <v>       0.99863461       0.32769340       0.31214626 </v>
    <v>       0.74942899       0.67261691       0.31262889 </v>
    <v>       0.25142859       0.32777235       0.56339899 </v>
    <v>      -0.00168213       0.67251688       0.56392748 </v>
    <v>       0.50168548       0.32682648       0.81205873 </v>
    <v>       0.25091125       0.67235540       0.81258546 </v>
    <v>       0.74901622       0.32674199       0.56430641 </v>
    <v>       0.50147075       0.67299256       0.56399082 </v>
    <v>       0.99785350       0.32750240       0.81306368 </v>
    <v>       0.74935796       0.67332326       0.81246214 </v>
    <v>       0.50196371       0.07803752       0.06637292 </v>
    <v>       0.25208776       0.91762316       0.06892842 </v>
    <v>       0.25251555       0.08250650       0.30564611 </v>
    <v>      -0.00276409       0.91793527       0.30519634 </v>
    <v>       0.99396033       0.07787182       0.06617737 </v>
    <v>       0.75141609       0.92643043       0.06333667 </v>
    <v>       0.74883362       0.07787646       0.30765510 </v>
    <v>       0.50176506       0.92170996       0.30806725 </v>
    <v>       0.50382222       0.07340752       0.56951692 </v>
    <v>       0.25267288       0.91795666       0.56953555 </v>
    <v>       0.25271787       0.08194326       0.80565472 </v>
    <v>      -0.00630111       0.92260759       0.80832590 </v>
    <v>       0.99668090       0.08158035       0.56996577 </v>
    <v>       0.74639251       0.92704838       0.57000348 </v>
    <v>       0.74925130       0.06945649       0.80851045 </v>
    <v>       0.50441528       0.92686421       0.80571341 </v>
   </varray>
  </structure>
  <varray name="forces" >
   <v>       0.09281785      -0.02659350       0.10114431 </v>
   <v>      -0.02273086       0.00431722      -0.26730396 </v>
   <v>      -0.04710711       0.03849239       0.05751984 </v>
   <v>       0.08807614       0.03609411      -0.08077857 </v>
   <v>      -0.29397097      -0.00211806       0.25208233 </v>
   <v>       0.28713673      -0.03652556       0.02087214 </v>
   <v>       0.12522276      -0.00524418       0.01458360 </v>
   <v>      -0.15065895       0.05811971       0.40927255 </v>
   <v>       0.07622097       0.01996718       0.04589688 </v>
   <v>       0.19705749       0.00385907       0.19392498 </v>
   <v>      -0.16796984      -0.15022352      -0.29828199 </v>
   <v>       0.18048438       0.21952565      -0.05373528 </v>
   <v>      -0.12028014      -1.10846336      -0.17720234 </v>
   <v>      -0.09349407       1.15024913       0.22547128 </v>
   <v>      -0.17224729      -0.30654357       0.08302156 </v>
   <v>      -0.12840997       0.24920865      -0.06219982 </v>
   <v>       0.03816275       0.11253503      -0.00486716 </v>
   <v>       0.08816146       0.25011817       0.04863246 </v>
   <v>       0.19168543      -1.03215570       0.20515920 </v>
   <v>       0.15756091       0.90864236      -0.30291137 </v>
   <v>      -0.08292420      -1.03079687      -0.33216722 </v>
   <v>      -0.09334371       0.98783360       0.27616402 </v>
   <v>      -0.13929441       0.19906414       0.10657339 </v>
   <v>      -0.19411340      -0.13405823      -0.14975118 </v>
   <v>       0.09794456       0.17611971      -0.10862613 </v>
   <v>       0.06080844      -0.14507768       0.04807651 </v>
   <v>       0.16245264      -0.14963932       0.13948432 </v>
   <v>       0.08190626       0.13225888       0.03143688 </v>
   <v>      -0.20508606      -0.19227893      -0.04393507 </v>
   <v>       0.06661930       0.16641253       0.01063208 </v>
   <v>       0.12203618      -0.14907320      -0.04618998 </v>
   <v>       0.01432700       0.23168061      -0.05233863 </v>
   <v>       0.09672066      -0.14501706      -0.02944278 </v>
   <v>      -0.16310132       0.10506347      -0.10150119 </v>
   <v>      -0.01454636      -0.13151640      -0.02658528 </v>
   <v>       0.16699616       0.12668112       0.09035453 </v>
   <v>      -0.20603608      -0.07775913       0.14362200 </v>
   <v>       0.13735746       0.16915636      -0.08470197 </v>
   <v>       0.12627669      -0.11044518      -0.07811110 </v>
   <v>      -0.06703788       0.15306783       0.12072978 </v>
   <v>       0.12384384      -0.18132046       0.10818583 </v>
   <v>      -0.22551265       0.16749034      -0.01210337 </v>
   <v>      -0.03889497      -0.26475944      -0.04478497 </v>
   <v>       0.15814603      -0.16753601       0.75971117 </v>
   <v>       0.25651025       1.13850977       1.17029350 </v>
   <v>       0.25479350      -1.17624651      -1.18995356 </v>
   <v>      -0.18645708       1.00870363      -1.08588746 </v>
   <v>      -0.71827564      -0.09293157       0.67036517 </v>
   <v>       0.31512959      -0.35524760       0.30638874 </v>
   <v>      -0.22982863      -0.12717395      -0.67895290 </v>
   <v>       0.16368451       0.20992561      -0.76176071 </v>
   <v>       0.13653843       0.56188701       0.69534131 </v>
   <v>       0.11793454       0.96156852       1.08162048 </v>
   <v>       0.12640612      -0.97116991      -1.09570984 </v>
   <v>      -0.62711218      -0.00836207      -0.61175918 </v>
   <v>       0.02780868      -0.75577727       0.92059138 </v>
   <v>      -0.22557240      -0.58951017       0.67274787 </v>
   <v>       0.11860359       0.63632217      -0.46912512 </v>
   <v>       0.15857488      -0.55930954      -0.75923196 </v>
  </varray>
  <varray name="stress" >
   <v>       6.44763552      -0.08494083      -0.61252087 </v>
   <v>      -0.08494069       8.52245055      -0.03633871 </v>
   <v>      -0.61252068      -0.03633884      12.62515527 </v>
  </varray>
  <energy>
   <i name="e_fr_energy">   -302.09946089 </i>
   <i name="e_wo_entrp">   -302.09946089 </i>
   <i name="e_0_energy">      0.00000000 </i>
  </energy>
  <time name="totalsc"> 1023.39 1027.21</time>
 </calculation>
 <calculation>
  <scstep>
   <time name="dav">   62.40   62.40</time>
   <time name="total">   63.18   63.18</time>
   <energy>
    <i name="alphaZ">   1077.35588726 </i>
    <i name="ewald"> -30535.47350306 </i>
    <i name="hartreedc"> -12893.13481186 </i>
    <i name="XCdc">   1275.61285528 </i>
    <i name="pawpsdc">  43976.36204516 </i>
    <i name="pawaedc"> -43289.21779133 </i>
    <i name="eentropy">      0.00000000 </i>
    <i name="bandstr">  -3926.94664389 </i>
    <i name="atom">  44026.03258983 </i>
    <i name="e_fr_energy">   -289.40937261 </i>
    <i name="e_wo_entrp">   -289.40937261 </i>
    <i name="e_0_energy">   -289.40937261 </i>
   </energy>
  </scstep>
  <scstep>
   <time name="dav">   69.54   69.64</time>
   <time name="total">   70.32   70.43</time>
   <energy>
    <i name="e_fr_energy">   -289.43188138 </i>
    <i name="e_wo_entrp">   -289.43188138 </i>
    <i name="e_0_energy">   -289.43188138 </i>
   </energy>
  </scstep>
  <scstep>
   <time name="dav">   79.85   79.97</time>
   <time name="total">   80.63   80.75</time>
   <energy>
    <i name="e_fr_energy">   -289.42961223 </i>
    <i name="e_wo_entrp">   -289.42961223 </i>
    <i name="e_0_energy">   -289.42961223 </i>
   </energy>
  </scstep>
  <scstep>
   <time name="dav">   73.08   73.32</time>
   <time name="total">   73.87   74.11</time>
   <energy>
    <i name="e_fr_energy">   -289.42826066 </i>
    <i name="e_wo_entrp">   -289.42826066 </i>
    <i name="e_0_energy">   -289.42826066 </i>
   </energy>
  </scstep>
  <scstep>
   <time name="dav">   80.06   80.26</time>
   <time name="total">   80.84   81.05</time>
   <energy>
    <i name="e_fr_energy">   -289.42827302 </i>
    <i name="e_wo_entrp">   -289.42827302 </i>
    <i name="e_0_energy">   -289.42827302 </i>
   </energy>
  </scstep>
  <scstep>
   <time name="dav">   69.66   69.69</time>
   <time name="total">   70.44   70.48</time>
   <energy>
    <i name="e_fr_energy">   -289.42827512 </i>
    <i name="e_wo_entrp">   -289.42827512 </i>
    <i name="e_0_energy">   -289.42827512 </i>
   </energy>
  </scstep>
  <scstep>
   <time name="dav">   70.23   70.37</time>
   <time name="total">   71.01   71.16</time>
   <energy>
    <i name="e_fr_energy">   -289.42827066 </i>
    <i name="e_wo_entrp">   -289.42827066 </i>
    <i name="e_0_energy">   -289.42827066 </i>
   </energy>
  </scstep>
  <scstep>
   <time name="dav">   81.10   81.23</time>
   <time name="total">   81.88   82.02</time>
   <energy>
    <i name="e_fr_energy">   -289.42827314 </i>
    <i name="e_wo_entrp">   -289.42827314 </i>
    <i name="e_0_energy">   -289.42827314 </i>
   </energy>
  </scstep>
  <scstep>
   <time name="dav">   64.16   64.34</time>
   <time name="total">   64.24   64.42</time>
   <energy>
    <i name="alphaZ">   1077.35588726 </i>
    <i name="ewald"> -30535.47350306 </i>
    <i name="hartreedc"> -12881.93721155 </i>
    <i name="XCdc">   1275.12334775 </i>
    <i name="pawpsdc">  44014.06675491 </i>
    <i name="pawaedc"> -43327.24053370 </i>
    <i name="eentropy">      0.00000000 </i>
    <i name="bandstr">  -3937.35560456 </i>
    <i name="atom">  44026.03258983 </i>
    <i name="e_fr_energy">   -289.42827314 </i>
    <i name="e_wo_entrp">   -289.42827314 </i>
    <i name="e_0_energy">   -289.42827314 </i>
   </energy>
  </scstep>
  <structure>
   <crystal>
    <varray name="basis" >
     <v>      11.20111578       0.00074738       0.00164092 </v>
     <v>       0.00064014       9.48790172      -0.00066904 </v>
     <v>       0.00164149      -0.00078139      11.08736621 </v>
    </varray>
    <i name="volume">   1178.31075635 </i>
    <varray name="rec_basis" >
     <v>       0.08927682      -0.00000602      -0.00001322 </v>
     <v>      -0.00000703       0.10539738       0.00000743 </v>
     <v>      -0.00001321       0.00000636       0.09019275 </v>
    </varray>
   </crystal>
   <varray name="positions" >
    <v>       0.12560319       0.99949568       0.18781435 </v>
    <v>       0.62521147       0.99985294       0.43428093 </v>
    <v>       0.62364509       0.00020053       0.18785269 </v>
    <v>       0.12560851       0.00019463       0.68601271 </v>
    <v>       0.62274016       0.99985261       0.93947556 </v>
    <v>       0.87866262      -0.00019844       0.93753196 </v>
    <v>       0.37180932       0.00013430       0.18729021 </v>
    <v>       0.87765657       0.00020012       0.19198036 </v>
    <v>       0.36705289       0.00017861       0.68680023 </v>
    <v>       0.62324498       0.99925674       0.68569878 </v>
    <v>       0.88242341       0.00013149       0.68209393 </v>
    <v>       0.00269264       0.29536469       0.06285412 </v>
    <v>       0.24922742       0.71045060       0.06216975 </v>
    <v>       0.24886544       0.28942615       0.31401972 </v>
    <v>       0.49800947       0.70490314       0.31320588 </v>
    <v>       0.49807913       0.29520044       0.06295157 </v>
    <v>       0.75044983       0.69886243       0.06374346 </v>
    <v>       0.75104581       0.29534460       0.31340560 </v>
    <v>       0.00164376       0.71050155       0.31416916 </v>
    <v>       0.00209669       0.28993176       0.56066602 </v>
    <v>       0.24877777       0.71016186       0.56079425 </v>
    <v>       0.24878413       0.28974065       0.81417118 </v>
    <v>       0.49707195       0.69892518       0.81447656 </v>
    <v>       0.49746857       0.30119481       0.56052801 </v>
    <v>       0.75200919       0.69860838       0.56033254 </v>
    <v>       0.75098033       0.30663628       0.81368260 </v>
    <v>       0.00275516       0.70443898       0.81349883 </v>
    <v>       0.25064362       0.32790796       0.06275220 </v>
    <v>      -0.00188809       0.67222230       0.06220437 </v>
    <v>       0.50092401       0.32769578       0.31305282 </v>
    <v>       0.25102055       0.67193200       0.31265472 </v>
    <v>       0.74997689       0.32731089       0.06195820 </v>
    <v>       0.50143496       0.67252447       0.06232113 </v>
    <v>       0.99851640       0.32777725       0.31208151 </v>
    <v>       0.74938217       0.67256125       0.31260793 </v>
    <v>       0.25155248       0.32786335       0.56344789 </v>
    <v>      -0.00183781       0.67245215       0.56402437 </v>
    <v>       0.50184147       0.32683159       0.81198600 </v>
    <v>       0.25099765       0.67227599       0.81256053 </v>
    <v>       0.74892329       0.32673947       0.56443768 </v>
    <v>       0.50159842       0.67297100       0.56409342 </v>
    <v>       0.99766508       0.32756891       0.81308220 </v>
    <v>       0.74930476       0.67333173       0.81242605 </v>
    <v>       0.50215183       0.07804275       0.06672797 </v>
    <v>       0.25228702       0.91722399       0.06951536 </v>
    <v>       0.25273001       0.08291742       0.30502777 </v>
    <v>      -0.00302408       0.91756437       0.30453721 </v>
    <v>       0.99342917       0.07786207       0.06651478 </v>
    <v>       0.75155501       0.92683086       0.06341623 </v>
    <v>       0.74871717       0.07786703       0.30721908 </v>
    <v>       0.50191207       0.92168177       0.30766861 </v>
    <v>       0.50417735       0.07299239       0.57015724 </v>
    <v>       0.25292472       0.91758777       0.57017758 </v>
    <v>       0.25295051       0.08230303       0.80503716 </v>
    <v>      -0.00687904       0.92266095       0.80795082 </v>
    <v>       0.99639418       0.08190731       0.57064695 </v>
    <v>       0.74607986       0.92750500       0.57068810 </v>
    <v>       0.74917242       0.06868259       0.80815201 </v>
    <v>       0.50480047       0.92730396       0.80510115 </v>
   </varray>
  </structure>
  <varray name="forces" >
   <v>       0.08164518      -0.02298115       0.09156185 </v>
   <v>      -0.02149499       0.00463884      -0.24207367 </v>
   <v>      -0.03207560       0.03598160       0.04305077 </v>
   <v>       0.07615404       0.03338853      -0.07104616 </v>
   <v>      -0.26996119      -0.00325723       0.22504414 </v>
   <v>       0.25014580      -0.03428369       0.01052917 </v>
   <v>       0.20069105      -0.00603141       0.00668563 </v>
   <v>      -0.23790600       0.07184714       0.33958081 </v>
   <v>       0.25126704       0.02262857       0.05198452 </v>
   <v>       0.25239125       0.01590546       0.24313832 </v>
   <v>      -0.36516241      -0.18167475      -0.22008201 </v>
   <v>       0.14841807       0.23535195      -0.06027178 </v>
   <v>      -0.11819978      -1.35742153      -0.18992211 </v>
   <v>      -0.08742805       1.40644583       0.23249627 </v>
   <v>      -0.15160150      -0.33665174       0.08385698 </v>
   <v>      -0.10070549       0.27253134      -0.07173223 </v>
   <v>       0.03558604       0.20082862      -0.02389629 </v>
   <v>       0.07286390       0.26996204       0.04251546 </v>
   <v>       0.18046193      -1.26837656       0.20762044 </v>
   <v>       0.14005928       1.11562782      -0.29691172 </v>
   <v>      -0.06978815      -1.25774407      -0.33140541 </v>
   <v>      -0.08601502       1.21336850       0.28330732 </v>
   <v>      -0.09657644       0.29142064       0.08184890 </v>
   <v>      -0.15785490      -0.22355467      -0.11580336 </v>
   <v>       0.06840700       0.26989051      -0.06801357 </v>
   <v>       0.04364274      -0.27697126       0.03555565 </v>
   <v>       0.12350708      -0.15485605       0.13855585 </v>
   <v>       0.07815070       0.12506270       0.03805149 </v>
   <v>      -0.18638592      -0.19272138      -0.03418026 </v>
   <v>       0.05442769       0.16598169       0.00658087 </v>
   <v>       0.11229117      -0.14008484      -0.04812975 </v>
   <v>       0.01661800       0.24286368      -0.03824833 </v>
   <v>       0.07940041      -0.14614395      -0.02060018 </v>
   <v>      -0.15030793       0.09710320      -0.09587716 </v>
   <v>      -0.00536652      -0.13195765      -0.02422749 </v>
   <v>       0.15192923       0.11946496       0.08828925 </v>
   <v>      -0.18762080      -0.07120492       0.13397847 </v>
   <v>       0.11414520       0.18197245      -0.07488055 </v>
   <v>       0.11700745      -0.10455493      -0.08048703 </v>
   <v>      -0.05218896       0.16580160       0.09959482 </v>
   <v>       0.10607256      -0.19239918       0.09336082 </v>
   <v>      -0.20102126       0.16921009      -0.01802356 </v>
   <v>      -0.03085470      -0.28783203      -0.04005375 </v>
   <v>       0.12800627      -0.18380366       0.74553789 </v>
   <v>       0.23365846       1.37108122       1.14654004 </v>
   <v>       0.22700648      -1.41462769      -1.16029725 </v>
   <v>      -0.13386714       1.20982239      -1.03021533 </v>
   <v>      -0.65619054      -0.09501390       0.64955286 </v>
   <v>       0.31032800      -0.44792198       0.31478698 </v>
   <v>      -0.22414333      -0.13547511      -0.63762422 </v>
   <v>       0.14304845       0.23439202      -0.73763033 </v>
   <v>       0.04542197       0.68510893       0.58955657 </v>
   <v>       0.06231634       1.15552218       1.02835778 </v>
   <v>       0.07670525      -1.16594522      -1.05025119 </v>
   <v>      -0.54004248      -0.02894361      -0.56893871 </v>
   <v>       0.11968020      -0.90435565       0.82991993 </v>
   <v>      -0.15671890      -0.71655340       0.55920387 </v>
   <v>       0.15072263       0.78339774      -0.42134155 </v>
   <v>       0.06730115      -0.68325906      -0.66847879 </v>
  </varray>
  <varray name="stress" >
   <v>       6.97737166      -0.10523843      -0.69541993 </v>
   <v>      -0.10523860      11.56031314      -0.00160978 </v>
   <v>      -0.69541982      -0.00160973      15.18528639 </v>
  </varray>
  <energy>
   <i name="e_fr_energy">   -302.10980227 </i>
   <i name="e_wo_entrp">   -302.10980227 </i>
   <i name="e_0_energy">      0.00000000 </i>
  </energy>
  <time name="totalsc">  763.73  765.14</time>
 </calculation>
 <calculation>
  <scstep>
   <time name="dav">   68.60   69.17</time>
   <time name="total">   69.38   69.95</time>
   <energy>
    <i name="alphaZ">   1062.60310786 </i>
    <i name="ewald"> -30488.00722515 </i>
    <i name="hartreedc"> -12730.88051353 </i>
    <i name="XCdc">   1266.83846574 </i>
    <i name="pawpsdc">  44014.00738915 </i>
    <i name="pawaedc"> -43327.18128372 </i>
    <i name="eentropy">      0.00000000 </i>
    <i name="bandstr">  -4112.33018874 </i>
    <i name="atom">  44026.03258983 </i>
    <i name="e_fr_energy">   -288.91765856 </i>
    <i name="e_wo_entrp">   -288.91765856 </i>
    <i name="e_0_energy">   -288.91765856 </i>
   </energy>
  </scstep>
  <scstep>
   <time name="dav">   66.83   67.32</time>
   <time name="total">   67.61   68.10</time>
   <energy>
    <i name="e_fr_energy">   -290.42771788 </i>
    <i name="e_wo_entrp">   -290.42771788 </i>
    <i name="e_0_energy">   -290.42771788 </i>
   </energy>
  </scstep>
  <scstep>
   <time name="dav">   82.63   82.78</time>
   <time name="total">   83.40   83.56</time>
   <energy>
    <i name="e_fr_energy">   -290.31283320 </i>
    <i name="e_wo_entrp">   -290.31283320 </i>
    <i name="e_0_energy">   -290.31283320 </i>
   </energy>
  </scstep>
  <scstep>
   <time name="dav">   74.94   75.07</time>
   <time name="total">   75.73   75.86</time>
   <energy>
    <i name="e_fr_energy">   -290.26785579 </i>
    <i name="e_wo_entrp">   -290.26785579 </i>
    <i name="e_0_energy">   -290.26785579 </i>
   </energy>
  </scstep>
  <scstep>
   <time name="dav">   70.04   70.46</time>
   <time name="total">   70.82   71.25</time>
   <energy>
    <i name="e_fr_energy">   -290.24459452 </i>
    <i name="e_wo_entrp">   -290.24459452 </i>
    <i name="e_0_energy">   -290.24459452 </i>
   </energy>
  </scstep>
  <scstep>
   <time name="dav">   77.13   77.68</time>
   <time name="total">   77.92   78.48</time>
   <energy>
    <i name="e_fr_energy">   -290.24365736 </i>
    <i name="e_wo_entrp">   -290.24365736 </i>
    <i name="e_0_energy">   -290.24365736 </i>
   </energy>
  </scstep>
  <scstep>
   <time name="dav">   73.09   73.17</time>
   <time name="total">   73.87   73.96</time>
   <energy>
    <i name="e_fr_energy">   -290.24353615 </i>
    <i name="e_wo_entrp">   -290.24353615 </i>
    <i name="e_0_energy">   -290.24353615 </i>
   </energy>
  </scstep>
  <scstep>
   <time name="dav">   86.98   87.19</time>
   <time name="total">   87.76   87.97</time>
   <energy>
    <i name="e_fr_energy">   -290.24345043 </i>
    <i name="e_wo_entrp">   -290.24345043 </i>
    <i name="e_0_energy">   -290.24345043 </i>
   </energy>
  </scstep>
  <scstep>
   <time name="dav">   74.98   75.05</time>
   <time name="total">   75.76   75.84</time>
   <energy>
    <i name="e_fr_energy">   -290.24344683 </i>
    <i name="e_wo_entrp">   -290.24344683 </i>
    <i name="e_0_energy">   -290.24344683 </i>
   </energy>
  </scstep>
  <scstep>
   <time name="dav">   74.66   74.79</time>
   <time name="total">   75.44   75.58</time>
   <energy>
    <i name="e_fr_energy">   -290.24345286 </i>
    <i name="e_wo_entrp">   -290.24345286 </i>
    <i name="e_0_energy">   -290.24345286 </i>
   </energy>
  </scstep>
  <scstep>
   <time name="dav">   71.33   71.43</time>
   <time name="total">   72.11   72.21</time>
   <energy>
    <i name="e_fr_energy">   -290.24345367 </i>
    <i name="e_wo_entrp">   -290.24345367 </i>
    <i name="e_0_energy">   -290.24345367 </i>
   </energy>
  </scstep>
  <scstep>
   <time name="dav">   58.22   58.33</time>
   <time name="total">   59.00   59.12</time>
   <energy>
    <i name="e_fr_energy">   -290.24345623 </i>
    <i name="e_wo_entrp">   -290.24345623 </i>
    <i name="e_0_energy">   -290.24345623 </i>
   </energy>
  </scstep>
  <scstep>
   <time name="dav">   44.29   44.40</time>
   <time name="total">   44.36   44.48</time>
   <energy>
    <i name="alphaZ">   1062.60310786 </i>
    <i name="ewald"> -30488.00722515 </i>
    <i name="hartreedc"> -12858.09380102 </i>
    <i name="XCdc">   1272.73658030 </i>
    <i name="pawpsdc">  43550.79957507 </i>
    <i name="pawaedc"> -42858.48808854 </i>
    <i name="eentropy">      0.00000000 </i>
    <i name="bandstr">  -3997.82619485 </i>
    <i name="atom">  44026.03258983 </i>
    <i name="e_fr_energy">   -290.24345650 </i>
    <i name="e_wo_entrp">   -290.24345650 </i>
    <i name="e_0_energy">   -290.24345650 </i>
   </energy>
  </scstep>
  <structure>
   <crystal>
    <varray name="basis" >
     <v>      11.25891540       0.00035701      -0.00239620 </v>
     <v>       0.00031111       9.51730417      -0.00097361 </v>
     <v>      -0.00235514      -0.00113516      11.14903987 </v>
    </varray>
    <i name="volume">   1194.66997695 </i>
    <varray name="rec_basis" >
     <v>       0.08881851      -0.00000290       0.00001876 </v>
     <v>      -0.00000333       0.10507177       0.00001070 </v>
     <v>       0.00001909       0.00000917       0.08969383 </v>
    </varray>
   </crystal>
   <varray name="positions" >
    <v>       0.12639658       0.99922418       0.18863795 </v>
    <v>       0.62503925       0.99988252       0.43206226 </v>
    <v>       0.62308123       0.00054659       0.18847861 </v>
    <v>       0.12638034       0.00052446       0.68531832 </v>
    <v>       0.62039426       0.99984168       0.94162646 </v>
    <v>       0.88119441      -0.00053929       0.93787133 </v>
    <v>       0.37146113       0.00008730       0.18750593 </v>
    <v>       0.87794885       0.00058564       0.19574739 </v>
    <v>       0.36484075       0.00029973       0.68699990 </v>
    <v>       0.62375295       0.99908068       0.68625705 </v>
    <v>       0.88424903      -0.00082633       0.67900396 </v>
    <v>       0.00446706       0.29666016       0.06260651 </v>
    <v>       0.24831382       0.70592321       0.06104484 </v>
    <v>       0.24804111       0.29415285       0.31558121 </v>
    <v>       0.49652895       0.70320198       0.31374830 </v>
    <v>       0.49673824       0.29661582       0.06269679 </v>
    <v>       0.75074614       0.69726702       0.06405082 </v>
    <v>       0.75188073       0.29681044       0.31385319 </v>
    <v>       0.00321282       0.70645768       0.31568574 </v>
    <v>       0.00357328       0.29337664       0.55840151 </v>
    <v>       0.24787942       0.70602241       0.55843359 </v>
    <v>       0.24793035       0.29360731       0.81602476 </v>
    <v>       0.49542147       0.69782670       0.81557280 </v>
    <v>       0.49560955       0.30269796       0.55900494 </v>
    <v>       0.75313340       0.69725771       0.55893403 </v>
    <v>       0.75165830       0.31027364       0.81422215 </v>
    <v>       0.00456174       0.70347297       0.81441283 </v>
    <v>       0.25124650       0.32905942       0.06287300 </v>
    <v>      -0.00355502       0.67077838       0.06176281 </v>
    <v>       0.50158967       0.32896504       0.31316733 </v>
    <v>       0.25198244       0.67063175       0.31235041 </v>
    <v>       0.75001768       0.32880758       0.06138955 </v>
    <v>       0.50239050       0.67145533       0.06199108 </v>
    <v>       0.99722879       0.32872615       0.31131235 </v>
    <v>       0.74910973       0.67158194       0.31238897 </v>
    <v>       0.25287730       0.32896606       0.56409915 </v>
    <v>      -0.00348836       0.67173918       0.56513359 </v>
    <v>       0.50317139       0.32780065       0.81126718 </v>
    <v>       0.25197019       0.67131202       0.81207122 </v>
    <v>       0.74820020       0.32758431       0.56557758 </v>
    <v>       0.50274241       0.67186035       0.56505290 </v>
    <v>       0.99578169       0.32879886       0.81310109 </v>
    <v>       0.74888667       0.67188692       0.81205644 </v>
    <v>       0.50371297       0.07711944       0.07191991 </v>
    <v>       0.25436990       0.92219672       0.07771806 </v>
    <v>       0.25486693       0.07778158       0.29659664 </v>
    <v>      -0.00499320       0.92185220       0.29646622 </v>
    <v>       0.98772715       0.07731881       0.07118820 </v>
    <v>       0.75365428       0.92664365       0.06523367 </v>
    <v>       0.74711566       0.07711545       0.30207425 </v>
    <v>       0.50332140       0.92274465       0.30227952 </v>
    <v>       0.50626434       0.07432933       0.57617680 </v>
    <v>       0.25453607       0.92160591       0.57815004 </v>
    <v>       0.25452499       0.07818233       0.79709778 </v>
    <v>      -0.01231969       0.92279514       0.80343484 </v>
    <v>       0.99539391       0.07896672       0.57794818 </v>
    <v>       0.74372998       0.92622663       0.57680871 </v>
    <v>       0.74941388       0.06861829       0.80437808 </v>
    <v>       0.50714451       0.92610755       0.79888123 </v>
   </varray>
  </structure>
  <varray name="forces" >
   <v>       0.05915689      -0.04110831       0.06189944 </v>
   <v>      -0.04556245       0.00467916      -0.15154761 </v>
   <v>       0.04954338       0.02473683      -0.05086219 </v>
   <v>       0.04729306       0.05389748      -0.04116711 </v>
[...]
       <r>    8.6235    0.0000 </r>
       <r>    8.6506    0.0000 </r>
       <r>    8.7067    0.0000 </r>
       <r>    8.7353    0.0000 </r>
       <r>    8.8251    0.0000 </r>
       <r>    8.8321    0.0000 </r>
       <r>    8.9380    0.0000 </r>
       <r>    9.8640    0.0000 </r>
       <r>    9.9961    0.0000 </r>
      </set>
     </set>
    </set>
   </array>
  </eigenvalues>
  <separator name="orbital magnetization" >
   <v name="MAGDIPOLOUT">      0.00000000      0.00000000      0.00000000</v>
  </separator>
  <dos>
   <i name="efermi">      4.02293714 </i>
   <total>
    <array>
     <dimension dim="1">gridpoints</dimension>
     <dimension dim="2">spin</dimension>
     <field>energy</field>
     <field>total</field>
     <field>integrated</field>
     <set>
      <set comment="spin 1">
       <r>   -43.2676     0.0000     0.0000 </r>
       <r>   -43.0816     0.0000     0.0000 </r>
       <r>   -42.8956     0.0000     0.0000 </r>
       <r>   -42.7096     0.0000     0.0000 </r>
       <r>   -42.5236     0.0000     0.0000 </r>
       <r>   -42.3376     0.0000     0.0000 </r>
       <r>   -42.1516     0.0000     0.0000 </r>
       <r>   -41.9656     0.0000     0.0000 </r>
       <r>   -41.7796     0.0000     0.0000 </r>
       <r>   -41.5936     0.0000     0.0000 </r>
       <r>   -41.4076     0.0000     0.0000 </r>
       <r>   -41.2216     0.0000     0.0000 </r>
       <r>   -41.0356     0.0000     0.0000 </r>
       <r>   -40.8496     0.0000     0.0000 </r>
       <r>   -40.6636     0.0000     2.0000 </r>
       <r>   -40.4776     0.0000     2.0000 </r>
       <r>   -40.2916     0.0000     2.0000 </r>
       <r>   -40.1056     0.0000     4.0000 </r>
       <r>   -39.9196     0.0000     8.0000 </r>
       <r>   -39.7336     0.0000    10.0000 </r>
       <r>   -39.5476     0.0000    12.0000 </r>
       <r>   -39.3616     0.0000    12.0000 </r>
       <r>   -39.1756     0.0000    12.0000 </r>
       <r>   -38.9896     0.0000    12.0000 </r>
       <r>   -38.8036     0.0000    12.0000 </r>
       <r>   -38.6176     0.0000    12.0000 </r>
       <r>   -38.4316     0.0000    12.0000 </r>
       <r>   -38.2456     0.0000    12.0000 </r>
       <r>   -38.0596     0.0000    12.0000 </r>
       <r>   -37.8736     0.0000    12.0000 </r>
       <r>   -37.6876     0.0000    12.0000 </r>
       <r>   -37.5016     0.0000    12.0000 </r>
       <r>   -37.3156     0.0000    12.0000 </r>
       <r>   -37.1296     0.0000    12.0000 </r>
       <r>   -36.9436     0.0000    12.0000 </r>
       <r>   -36.7576     0.0000    12.0000 </r>
       <r>   -36.5716     0.0000    12.0000 </r>
       <r>   -36.3856     0.0000    12.0000 </r>
       <r>   -36.1996     0.0000    12.0000 </r>
       <r>   -36.0136     0.0000    12.0000 </r>
       <r>   -35.8276     0.0000    12.0000 </r>
       <r>   -35.6416     0.0000    12.0000 </r>
       <r>   -35.4556     0.0000    12.0000 </r>
       <r>   -35.2696     0.0000    12.0000 </r>
       <r>   -35.0836     0.0000    12.0000 </r>
       <r>   -34.8976     0.0000    12.0000 </r>
       <r>   -34.7116     0.0000    12.0000 </r>
       <r>   -34.5256     0.0000    12.0000 </r>
       <r>   -34.3396     0.0000    12.0000 </r>
       <r>   -34.1536     0.0000    12.0000 </r>
       <r>   -33.9676     0.0000    12.0000 </r>
       <r>   -33.7816     0.0000    12.0000 </r>
       <r>   -33.5956     0.0000    12.0000 </r>
       <r>   -33.4096     0.0000    12.0000 </r>
       <r>   -33.2236     0.0000    12.0000 </r>
       <r>   -33.0376     0.0000    12.0000 </r>
       <r>   -32.8516     0.0000    12.0000 </r>
       <r>   -32.6656     0.0000    12.0000 </r>
       <r>   -32.4796     0.0000    12.0000 </r>
       <r>   -32.2936     0.0000    12.0000 </r>
       <r>   -32.1076     0.0000    12.0000 </r>
       <r>   -31.9216     0.0000    12.0000 </r>
       <r>   -31.7356     0.0000    12.0000 </r>
       <r>   -31.5496     0.0000    12.0000 </r>
       <r>   -31.3636     0.0000    12.0000 </r>
       <r>   -31.1776     0.0000    12.0000 </r>
       <r>   -30.9916     0.0000    12.0000 </r>
       <r>   -30.8056     0.0000    12.0000 </r>
       <r>   -30.6196     0.0000    12.0000 </r>
       <r>   -30.4336     0.0000    12.0000 </r>
       <r>   -30.2476     0.0000    12.0000 </r>
       <r>   -30.0616     0.0000    12.0000 </r>
       <r>   -29.8756     0.0000    12.0000 </r>
       <r>   -29.6896     0.0000    12.0000 </r>
       <r>   -29.5036     0.0000    12.0000 </r>
       <r>   -29.3176     0.0000    12.0000 </r>
       <r>   -29.1316     0.0000    12.0000 </r>
       <r>   -28.9456     0.0000    12.0000 </r>
       <r>   -28.7596     0.0000    12.0000 </r>
       <r>   -28.5736     0.0000    12.0000 </r>
       <r>   -28.3876     0.0000    12.0000 </r>
       <r>   -28.2016     0.0000    12.0000 </r>
       <r>   -28.0156     0.0000    12.0000 </r>
       <r>   -27.8296     0.0000    12.0000 </r>
       <r>   -27.6436     0.0000    12.0000 </r>
       <r>   -27.4576     0.0000    12.0000 </r>
       <r>   -27.2716     0.0000    12.0000 </r>
       <r>   -27.0856     0.0000    12.0000 </r>
       <r>   -26.8996     0.0000    12.0000 </r>
       <r>   -26.7136     0.0000    12.0000 </r>
       <r>   -26.5276     0.0000    12.0000 </r>
       <r>   -26.3416     0.0000    12.0000 </r>
       <r>   -26.1556     0.0000    12.0000 </r>
       <r>   -25.9696     0.0000    12.0000 </r>
       <r>   -25.7836     0.0000    12.0000 </r>
       <r>   -25.5976     0.0000    12.0000 </r>
       <r>   -25.4116     0.0000    12.0000 </r>
       <r>   -25.2256     0.0000    12.0000 </r>
       <r>   -25.0396     0.0000    12.0000 </r>
       <r>   -24.8536     0.0000    12.0000 </r>
       <r>   -24.6676     0.0000    12.0000 </r>
       <r>   -24.4816     0.0000    12.0000 </r>
       <r>   -24.2956     0.0000    12.0000 </r>
       <r>   -24.1096     0.0000    12.0000 </r>
       <r>   -23.9236     0.0000    12.0000 </r>
       <r>   -23.7376     0.0000    12.0000 </r>
       <r>   -23.5516     0.0000    12.0000 </r>
       <r>   -23.3656     0.0000    12.0000 </r>
       <r>   -23.1796     0.0000    12.0000 </r>
       <r>   -22.9936     0.0000    12.0000 </r>
       <r>   -22.8076     0.0000    12.0000 </r>
       <r>   -22.6216     0.0000    12.0000 </r>
       <r>   -22.4356     0.0000    12.0000 </r>
       <r>   -22.2496     0.0000    12.0000 </r>
       <r>   -22.0636     0.0000    12.0000 </r>
       <r>   -21.8776     0.0000    12.0000 </r>
       <r>   -21.6916     0.0000    12.0000 </r>
       <r>   -21.5056     0.0000    12.0000 </r>
       <r>   -21.3196     0.0000    12.0000 </r>
       <r>   -21.1336     0.0000    12.0000 </r>
       <r>   -20.9476     0.0000    12.0000 </r>
       <r>   -20.7616     0.0000    12.0000 </r>
       <r>   -20.5756     0.0000    12.0000 </r>
       <r>   -20.3896     0.0000    12.0000 </r>
       <r>   -20.2036     0.0000    12.0000 </r>
       <r>   -20.0176     0.0000    12.0000 </r>
       <r>   -19.8316     0.0000    12.0000 </r>
       <r>   -19.6456     0.0000    12.0000 </r>
       <r>   -19.4596     0.0000    12.0000 </r>
       <r>   -19.2736     0.0000    12.0000 </r>
       <r>   -19.0876     0.0000    12.0000 </r>
       <r>   -18.9016     0.0000    42.0000 </r>
       <r>   -18.7156     0.0000   132.0000 </r>
       <r>   -18.5296     0.0000   172.0000 </r>
       <r>   -18.3436     0.0000   172.0000 </r>
       <r>   -18.1576     0.0000   172.0000 </r>
       <r>   -17.9716     0.0000   172.0000 </r>
       <r>   -17.7856     0.0000   172.0000 </r>
       <r>   -17.5996     0.0000   172.0000 </r>
       <r>   -17.4136     0.0000   172.0000 </r>
       <r>   -17.2276     0.0000   172.0000 </r>
       <r>   -17.0416     0.0000   172.0000 </r>
       <r>   -16.8556     0.0000   172.0000 </r>
       <r>   -16.6696     0.0000   172.0000 </r>
       <r>   -16.4836     0.0000   172.0000 </r>
       <r>   -16.2976     0.0000   172.0000 </r>
       <r>   -16.1116     0.0000   172.0000 </r>
       <r>   -15.9256     0.0000   172.0000 </r>
       <r>   -15.7396     0.0000   172.0000 </r>
       <r>   -15.5536     0.0000   172.0000 </r>
       <r>   -15.3676     0.0000   172.0000 </r>
       <r>   -15.1816     0.0000   172.0000 </r>
       <r>   -14.9956     0.0000   172.0000 </r>
       <r>   -14.8096     0.0000   172.0000 </r>
       <r>   -14.6236     0.0000   172.0000 </r>
       <r>   -14.4376     0.0000   172.0000 </r>
       <r>   -14.2516     0.0000   172.0000 </r>
       <r>   -14.0656     0.0000   172.0000 </r>
       <r>   -13.8796     0.0000   172.0000 </r>
       <r>   -13.6936     0.0000   172.0000 </r>
       <r>   -13.5076     0.0000   172.0000 </r>
       <r>   -13.3216     0.0000   174.0000 </r>
       <r>   -13.1356     0.0000   178.0000 </r>
       <r>   -12.9496     0.0000   190.0000 </r>
       <r>   -12.7636   371.5297   200.1809 </r>
       <r>   -12.5776     0.0000   204.0000 </r>
       <r>   -12.3916     0.0000   204.0000 </r>
       <r>   -12.2056     0.0000   204.0000 </r>
       <r>   -12.0196     0.0000   204.0000 </r>
       <r>   -11.8336     0.0000   204.0000 </r>
       <r>   -11.6476     0.0000   204.0000 </r>
       <r>   -11.4616     0.0000   204.0000 </r>
       <r>   -11.2756     0.0000   204.0000 </r>
       <r>   -11.0896     0.0000   204.0000 </r>
       <r>   -10.9036     0.0000   204.0000 </r>
       <r>   -10.7176     0.0000   204.0000 </r>
       <r>   -10.5316     0.0000   204.0000 </r>
       <r>   -10.3456     0.0000   204.0000 </r>
       <r>   -10.1596     0.0000   204.0000 </r>
       <r>    -9.9736     0.0000   204.0000 </r>
       <r>    -9.7876     0.0000   204.0000 </r>
       <r>    -9.6016     0.0035   204.0000 </r>
       <r>    -9.4156    11.6162   205.1745 </r>
       <r>    -9.2296     9.6500   206.8804 </r>
       <r>    -9.0436     4.6642   208.2325 </r>
       <r>    -8.8576    21.0599   211.0169 </r>
       <r>    -8.6716     3.3124   214.0104 </r>
       <r>    -8.4856    22.4136   218.2930 </r>
       <r>    -8.2996     0.0000   220.0000 </r>
       <r>    -8.1136    41.5721   225.3684 </r>
       <r>    -7.9276    40.0832   231.4588 </r>
       <r>    -7.7416    25.1674   233.6442 </r>
       <r>    -7.5556     0.0000   236.0000 </r>
       <r>    -7.3696     0.0000   236.0000 </r>
       <r>    -7.1836     0.0000   236.0000 </r>
       <r>    -6.9976     0.0000   236.0000 </r>
       <r>    -6.8116     0.0000   236.0000 </r>
       <r>    -6.6256     0.0000   236.0000 </r>
       <r>    -6.4396     9.9604   236.4654 </r>
       <r>    -6.2536    32.1852   240.6764 </r>
       <r>    -6.0676    10.5381   244.2225 </r>
       <r>    -5.8816    34.7133   249.3334 </r>
       <r>    -5.6956    22.7984   253.3226 </r>
       <r>    -5.5096    16.9249   258.0551 </r>
       <r>    -5.3236     0.8011   259.9957 </r>
       <r>    -5.1376     6.3714   260.2755 </r>
       <r>    -4.9516    15.0876   262.8930 </r>
       <r>    -4.7656     3.4783   264.3321 </r>
       <r>    -4.5796     6.9578   265.3030 </r>
       <r>    -4.3936     6.9211   267.0275 </r>
       <r>    -4.2076     2.2693   267.6837 </r>
       <r>    -4.0216     0.7250   267.9618 </r>
       <r>    -3.8356     0.0000   268.0000 </r>
       <r>    -3.6496     0.0000   268.0000 </r>
       <r>    -3.4636     0.0000   268.0000 </r>
       <r>    -3.2776     0.0000   268.0000 </r>
       <r>    -3.0916     0.0000   268.0000 </r>
       <r>    -2.9056     0.0000   268.0000 </r>
       <r>    -2.7196     0.0000   268.0000 </r>
       <r>    -2.5336     0.0000   268.0000 </r>
       <r>    -2.3476     0.0000   268.0000 </r>
       <r>    -2.1616     0.0000   268.0000 </r>
       <r>    -1.9756     0.0000   268.0000 </r>
       <r>    -1.7896     0.0000   268.0000 </r>
       <r>    -1.6036     0.0000   268.0000 </r>
       <r>    -1.4176     2.6348   268.0710 </r>
       <r>    -1.2316     8.4012   269.3939 </r>
       <r>    -1.0456     5.4621   270.6533 </r>
       <r>    -0.8596    14.2128   272.3011 </r>
       <r>    -0.6736    13.7804   274.9984 </r>
       <r>    -0.4876    24.1476   278.3733 </r>
       <r>    -0.3016    40.5675   284.4323 </r>
       <r>    -0.1156    31.4476   291.7638 </r>
       <r>     0.0704    40.8651   299.5140 </r>
       <r>     0.2564    36.7087   307.0759 </r>
       <r>     0.4424    46.5850   312.7204 </r>
       <r>     0.6284    52.2875   319.9732 </r>
       <r>     0.8144    29.1995   328.0508 </r>
       <r>     1.0004    41.9086   335.3706 </r>
       <r>     1.1864    44.6688   344.1755 </r>
       <r>     1.3724    36.6047   352.4524 </r>
       <r>     1.5584    48.5218   360.2891 </r>
       <r>     1.7444    52.4027   369.4322 </r>
       <r>     1.9304    39.5114   378.3250 </r>
       <r>     2.1164    67.0944   386.8301 </r>
       <r>     2.3024    77.7948   399.8553 </r>
       <r>     2.4884    58.9354   412.2066 </r>
       <r>     2.6744    66.3268   422.9262 </r>
       <r>     2.8604    41.9112   435.7635 </r>
       <r>     3.0464    34.5562   443.5879 </r>
       <r>     3.2324    41.1468   450.0579 </r>
       <r>     3.4184    18.3228   455.3877 </r>
       <r>     3.6044    11.5407   458.2705 </r>
       <r>     3.7904     4.1105   459.7025 </r>
       <r>     3.9764     0.0400   459.9998 </r>
       <r>     4.1624     0.0000   460.0000 </r>
       <r>     4.3484     0.0000   460.0000 </r>
       <r>     4.5344     0.0000   460.0000 </r>
       <r>     4.7204     0.0000   460.0000 </r>
       <r>     4.9064     0.0000   460.0000 </r>
       <r>     5.0924     3.0516   460.1492 </r>
       <r>     5.2784     9.4826   461.3644 </r>
       <r>     5.4644    10.2938   463.2488 </r>
       <r>     5.6504    26.6706   466.1263 </r>
       <r>     5.8364    15.0266   469.8235 </r>
       <r>     6.0224    13.5147   472.4427 </r>
       <r>     6.2084    13.6216   474.9484 </r>
       <r>     6.3944    15.0029   477.5926 </r>
       <r>     6.5804    17.4546   480.5911 </r>
       <r>     6.7664    22.2710   484.1787 </r>
       <r>     6.9524    23.9475   488.5240 </r>
       <r>     7.1384    27.9477   493.1787 </r>
       <r>     7.3244    31.7199   499.3576 </r>
       <r>     7.5104    30.7408   504.9245 </r>
       <r>     7.6964    25.7339   510.6065 </r>
       <r>     7.8824    39.6847   516.6739 </r>
       <r>     8.0684    33.0984   523.9301 </r>
       <r>     8.2544    22.7386   528.8853 </r>
       <r>     8.4404    32.7600   533.9089 </r>
       <r>     8.6264    35.5984   539.8904 </r>
       <r>     8.8124    28.6601   546.3733 </r>
       <r>     8.9984    25.4094   551.7517 </r>
       <r>     9.1844    11.9505   555.2406 </r>
       <r>     9.3704     0.0000   556.0000 </r>
       <r>     9.5564     9.4229   556.6733 </r>
       <r>     9.7424     9.5743   558.4675 </r>
       <r>     9.9284     3.3608   559.9051 </r>
       <r>    10.1144     0.0000   560.0000 </r>
       <r>    10.3004     0.0000   560.0000 </r>
       <r>    10.4864     0.0000   560.0000 </r>
       <r>    10.6724     0.0000   560.0000 </r>
       <r>    10.8584     0.0000   560.0000 </r>
       <r>    11.0444     0.0000   560.0000 </r>
       <r>    11.2304     0.0000   560.0000 </r>
       <r>    11.4164     0.0000   560.0000 </r>
       <r>    11.6024     0.0000   560.0000 </r>
       <r>    11.7884     0.0000   560.0000 </r>
       <r>    11.9744     0.0000   560.0000 </r>
       <r>    12.1604     0.0000   560.0000 </r>
       <r>    12.3464     0.0000   560.0000 </r>
       <r>    12.5325     0.0000   560.0000 </r>
      </set>
     </set>
    </array>
   </total>
  </dos>
 </calculation>
 <structure name="finalpos" >
  <crystal>
   <varray name="basis" >
    <v>      11.24855714       0.00410270       0.01146779 </v>
    <v>       0.00303332       9.63008913      -0.12010160 </v>
    <v>       0.01122843      -0.14081453      11.25402998 </v>
   </varray>
   <i name="volume">   1218.89675785 </i>
   <varray name="rec_basis" >
    <v>       0.08890039      -0.00002911      -0.00008906 </v>
    <v>      -0.00003920       0.10385742       0.00129954 </v>
    <v>      -0.00009101       0.00110838       0.08887102 </v>
   </varray>
  </crystal>
  <varray name="positions" >
   <v>       0.12806299       0.00531780       0.19265966 </v>
   <v>       0.62708022       0.00613249       0.39344388 </v>
   <v>       0.62890691       0.00190614       0.15117948 </v>
   <v>       0.12990437      -0.00483020       0.69146390 </v>
   <v>       0.36439814       0.00632663       0.94179398 </v>
   <v>       0.89702607      -0.00954996       0.94687231 </v>
   <v>       0.38327193       0.00164517       0.19474621 </v>
   <v>       0.87416406       0.00595081       0.19735587 </v>
   <v>       0.37811751       0.00085346       0.67756601 </v>
   <v>       0.62926711      -0.00155452       0.70424815 </v>
   <v>       0.88087261      -0.00827681       0.68236541 </v>
   <v>       0.00105053       0.30535096       0.06734494 </v>
   <v>       0.25790327       0.69420560       0.06476499 </v>
   <v>       0.25157022       0.31047693       0.30916444 </v>
   <v>       0.50533306       0.69911365       0.30581248 </v>
   <v>       0.49974488       0.30620569       0.06694607 </v>
   <v>       0.75957387       0.69295549       0.06634006 </v>
   <v>       0.75169590       0.31394694       0.30760034 </v>
   <v>       0.00644796       0.70549626       0.30936443 </v>
   <v>       0.00787558       0.29290142       0.56773563 </v>
   <v>       0.25071329       0.68868844       0.56618414 </v>
   <v>       0.25697907       0.30754732       0.81316638 </v>
   <v>       0.49992232       0.68954142       0.80830638 </v>
   <v>       0.50518880       0.30823480       0.56909307 </v>
   <v>       0.75357052       0.67973502       0.56805113 </v>
   <v>       0.75880555       0.31380520       0.81039312 </v>
   <v>       0.00158325       0.69125332       0.81239016 </v>
   <v>       0.25702223       0.35505132       0.06133092 </v>
   <v>       0.00183835       0.64438280       0.06822535 </v>
   <v>       0.50312892       0.35150928       0.30971975 </v>
   <v>       0.25610173       0.66877883       0.31486282 </v>
   <v>       0.75546651       0.34980344       0.06145934 </v>
   <v>       0.50347629       0.64816253       0.06796680 </v>
   <v>       0.00091868       0.34556961       0.30892014 </v>
   <v>       0.75398972       0.66190239       0.31698907 </v>
   <v>       0.25631048       0.33222399       0.56392567 </v>
   <v>       0.00153013       0.65285334       0.57029687 </v>
   <v>       0.50377336       0.35532411       0.80931975 </v>
   <v>       0.25719654       0.64781917       0.81655142 </v>
   <v>       0.75400583       0.34243606       0.56137953 </v>
   <v>       0.50384649       0.64549981       0.56828697 </v>
   <v>       0.00166029       0.35175117       0.80962638 </v>
   <v>       0.75453858       0.64538385       0.81667381 </v>
   <v>       0.48631376       0.09069115       0.07330884 </v>
   <v>       0.27740819       0.90830339       0.07515079 </v>
   <v>       0.25575643       0.10209605       0.27596289 </v>
   <v>       0.00198488       0.91252173       0.27924904 </v>
   <v>       0.98234859       0.09166018       0.07886711 </v>
   <v>       0.77309654       0.90901319       0.07481605 </v>
   <v>       0.73931964       0.09644645       0.28626071 </v>
   <v>       0.51710640       0.91532459       0.28427751 </v>
   <v>       0.51534684       0.08969084       0.59238562 </v>
   <v>       0.25234027       0.89719639       0.60049581 </v>
   <v>       0.27782490       0.09264830       0.80238175 </v>
   <v>      -0.01901901       0.90599188       0.80563590 </v>
   <v>       0.00689961       0.08629155       0.60080676 </v>
   <v>       0.74544837       0.89735761       0.59839395 </v>
   <v>       0.76272694       0.09446968       0.78787809 </v>
   <v>       0.49431351       0.90835583       0.78797195 </v>
  </varray>
 </structure>
</modeling>
