<?xml version="1.0" encoding="ISO-8859-1"?>
<modeling>
 <generator>
  <i name="program" type="string">vasp </i>
  <i name="version" type="string">5.4.4.18Apr17-6-g9f103f2a35  </i>
  <i name="subversion" type="string">(build Jul 31 2017 11:33:29) complex            parallel </i>
  <i name="platform" type="string">LinuxIFC </i>
  <i name="date" type="string">2021 09 29 </i>
  <i name="time" type="string">18:11:50 </i>
 </generator>
 <incar>
  <i type="string" name="SYSTEM"> La2O2S</i>
  <i type="string" name="PREC">normal</i>
  <i type="int" name="NELMIN">     4</i>
  <i type="int" name="IBRION">     2</i>
  <i type="int" name="NFREE">    10</i>
  <i name="EDIFF">      0.00000100</i>
  <i name="EDIFFG">     -0.01000000</i>
  <i type="int" name="NSW">     1</i>
  <i type="int" name="ISIF">     2</i>
  <i name="ENCUT">    600.00000000</i>
  <i name="ENAUG">    900.00000000</i>
  <i type="int" name="ISMEAR">    -5</i>
  <i type="logical" name="LWAVE"> F  </i>
  <i type="logical" name="LCHARG"> F  </i>
  <v type="int" name="KPOINT_BSE">    -1     0     0     0</v>
 </incar>
 <structure name="primitive_cell" >
  <crystal>
   <varray name="basis" >
    <v>      11.17850000       0.00000000       0.00000000 </v>
    <v>       0.00000000       9.57460000       0.00000000 </v>
    <v>       0.00000000       0.00000000      11.18240000 </v>
   </varray>
   <i name="volume">   1196.84853820 </i>
   <varray name="rec_basis" >
    <v>       0.08945744       0.00000000       0.00000000 </v>
    <v>       0.00000000       0.10444301       0.00000000 </v>
    <v>       0.00000000       0.00000000       0.08942624 </v>
   </varray>
  </crystal>
  <varray name="positions" >
   <v>       0.37539000       0.00017000       0.43687000 </v>
   <v>      -0.49987000      -0.07798000       0.31246000 </v>
   <v>       0.25013000       0.07798000       0.31246000 </v>
   <v>       0.49987000       0.07798000      -0.43754000 </v>
   <v>       0.24987000      -0.07798000      -0.43754000 </v>
   <v>      -0.37461000      -0.00016000       0.43687000 </v>
   <v>       0.37461000       0.00017000      -0.31313000 </v>
   <v>       0.37461000       0.00017000       0.18687000 </v>
   <v>       0.49987000      -0.29519000       0.31282000 </v>
   <v>       0.24987000       0.29519000       0.31282000 </v>
   <v>      -0.49987000       0.29519000      -0.43719000 </v>
   <v>       0.25013000      -0.29519000      -0.43719000 </v>
   <v>       0.49995000       0.32677000       0.31286000 </v>
   <v>       0.24995000      -0.32677000       0.31286000 </v>
   <v>      -0.49995000      -0.32677000      -0.43714000 </v>
   <v>       0.25005000       0.32677000      -0.43714000 </v>
   <v>      -0.37539000      -0.00016000      -0.31313000 </v>
   <v>       0.12461000      -0.00016000       0.18687000 </v>
   <v>       0.12461000      -0.00016000      -0.31313000 </v>
   <v>       0.49987000       0.07798000       0.06246000 </v>
   <v>      -0.24987000       0.07798000       0.31246000 </v>
   <v>      -0.25013000      -0.07798000      -0.43754000 </v>
   <v>       0.24987000      -0.07798000       0.06246000 </v>
   <v>       0.00013000      -0.07798000       0.31246000 </v>
   <v>      -0.49987000      -0.07798000      -0.18754000 </v>
   <v>      -0.00013000       0.07798000      -0.43754000 </v>
   <v>       0.25013000       0.07798000      -0.18754000 </v>
   <v>      -0.49987000       0.29519000       0.06281000 </v>
   <v>      -0.25013000       0.29519000       0.31282000 </v>
   <v>       0.25013000      -0.29519000       0.06281000 </v>
   <v>      -0.24987000      -0.29519000      -0.43719000 </v>
   <v>      -0.00013000      -0.29519000       0.31282000 </v>
   <v>       0.00013000       0.29519000      -0.43719000 </v>
   <v>       0.49987000      -0.29519000      -0.18718000 </v>
   <v>       0.24987000       0.29519000      -0.18718000 </v>
   <v>      -0.49995000      -0.32677000       0.06286000 </v>
   <v>       0.25005000       0.32677000       0.06286000 </v>
   <v>      -0.25005000      -0.32677000       0.31286000 </v>
   <v>      -0.24995000       0.32677000      -0.43714000 </v>
   <v>      -0.00005000       0.32677000       0.31286000 </v>
   <v>       0.00005000      -0.32677000      -0.43714000 </v>
   <v>       0.49995000       0.32677000      -0.18714000 </v>
   <v>       0.24995000      -0.32677000      -0.18714000 </v>
   <v>      -0.12461000       0.00017000       0.43687000 </v>
   <v>       0.37539000       0.00017000      -0.06313000 </v>
   <v>      -0.25013000      -0.07798000       0.06246000 </v>
   <v>      -0.00013000       0.07798000       0.06246000 </v>
   <v>      -0.24987000       0.07798000      -0.18754000 </v>
   <v>       0.00013000      -0.07798000      -0.18754000 </v>
   <v>      -0.12539000       0.00017000       0.18687000 </v>
   <v>      -0.37461000      -0.00016000      -0.06313000 </v>
   <v>      -0.24987000      -0.29519000       0.06281000 </v>
   <v>       0.00013000       0.29519000       0.06281000 </v>
   <v>      -0.25013000       0.29519000      -0.18718000 </v>
   <v>      -0.00013000      -0.29519000      -0.18718000 </v>
   <v>      -0.24995000       0.32677000       0.06286000 </v>
   <v>       0.00005000      -0.32677000       0.06286000 </v>
   <v>      -0.25005000      -0.32677000      -0.18714000 </v>
   <v>      -0.00005000       0.32677000      -0.18714000 </v>
   <v>      -0.12461000       0.00017000      -0.06313000 </v>
  </varray>
 </structure>
 <varray name="primitive_index" >
  <v type="int" >        1 </v>
  <v type="int" >       52 </v>
  <v type="int" >       47 </v>
  <v type="int" >       53 </v>
  <v type="int" >       54 </v>
  <v type="int" >        3 </v>
  <v type="int" >        6 </v>
  <v type="int" >        9 </v>
  <v type="int" >       16 </v>
  <v type="int" >       15 </v>
  <v type="int" >       25 </v>
  <v type="int" >       22 </v>
  <v type="int" >       31 </v>
  <v type="int" >       32 </v>
  <v type="int" >       42 </v>
  <v type="int" >       37 </v>
  <v type="int" >        8 </v>
  <v type="int" >        2 </v>
  <v type="int" >       11 </v>
  <v type="int" >       45 </v>
  <v type="int" >       51 </v>
  <v type="int" >       58 </v>
  <v type="int" >       46 </v>
  <v type="int" >       48 </v>
  <v type="int" >       60 </v>
  <v type="int" >       57 </v>
  <v type="int" >       55 </v>
  <v type="int" >       17 </v>
  <v type="int" >       19 </v>
  <v type="int" >       14 </v>
  <v type="int" >       26 </v>
  <v type="int" >       20 </v>
  <v type="int" >       21 </v>
  <v type="int" >       24 </v>
  <v type="int" >       23 </v>
  <v type="int" >       34 </v>
  <v type="int" >       29 </v>
  <v type="int" >       36 </v>
  <v type="int" >       41 </v>
  <v type="int" >       35 </v>
  <v type="int" >       38 </v>
  <v type="int" >       39 </v>
  <v type="int" >       40 </v>
  <v type="int" >       10 </v>
  <v type="int" >        5 </v>
  <v type="int" >       50 </v>
  <v type="int" >       49 </v>
  <v type="int" >       59 </v>
  <v type="int" >       56 </v>
  <v type="int" >        4 </v>
  <v type="int" >        7 </v>
  <v type="int" >       18 </v>
  <v type="int" >       13 </v>
  <v type="int" >       27 </v>
  <v type="int" >       28 </v>
  <v type="int" >       33 </v>
  <v type="int" >       30 </v>
  <v type="int" >       44 </v>
  <v type="int" >       43 </v>
  <v type="int" >       12 </v>
 </varray>
 <kpoints>
  <generation param="Gamma">
   <v type="int" name="divisions">       2        2        2 </v>
   <v name="usershift">      0.00000000       0.00000000       0.00000000 </v>
   <v name="genvec1">      0.50000000       0.00000000       0.00000000 </v>
   <v name="genvec2">      0.00000000       0.50000000       0.00000000 </v>
   <v name="genvec3">      0.00000000       0.00000000       0.50000000 </v>
   <v name="shift">      0.00000000       0.00000000       0.00000000 </v>
  </generation>
  <varray name="kpointlist" >
   <v>       0.00000000       0.00000000       0.00000000 </v>
   <v>       0.50000000       0.00000000       0.00000000 </v>
   <v>       0.00000000       0.50000000       0.00000000 </v>
   <v>       0.50000000       0.50000000       0.00000000 </v>
   <v>       0.00000000       0.00000000       0.50000000 </v>
   <v>       0.50000000       0.00000000       0.50000000 </v>
   <v>       0.00000000       0.50000000       0.50000000 </v>
   <v>       0.50000000       0.50000000       0.50000000 </v>
  </varray>
  <varray name="weights" >
   <v>       0.12500000 </v>
   <v>       0.12500000 </v>
   <v>       0.12500000 </v>
   <v>       0.12500000 </v>
   <v>       0.12500000 </v>
   <v>       0.12500000 </v>
   <v>       0.12500000 </v>
   <v>       0.12500000 </v>
  </varray>
  <varray name="tetrahedronlist"  type="int" >
   <v type="int" >        2        1        2        4        5 </v>
   <v type="int" >        2        1        3        4        5 </v>
   <v type="int" >        2        3        4        5        7 </v>
   <v type="int" >        2        2        4        5        6 </v>
   <v type="int" >        2        4        5        6        8 </v>
   <v type="int" >        2        4        5        7        8 </v>
   <v type="int" >        2        1        2        3        6 </v>
   <v type="int" >        2        2        3        4        6 </v>
   <v type="int" >        2        3        4        6        8 </v>
   <v type="int" >        2        1        3        5        6 </v>
   <v type="int" >        2        3        5        6        7 </v>
   <v type="int" >        2        3        6        7        8 </v>
   <v type="int" >        2        2        3        4        7 </v>
   <v type="int" >        2        1        2        3        7 </v>
   <v type="int" >        2        1        2        5        7 </v>
   <v type="int" >        2        2        4        7        8 </v>
   <v type="int" >        2        2        6        7        8 </v>
   <v type="int" >        2        2        5        6        7 </v>
   <v type="int" >        2        1        3        4        8 </v>
   <v type="int" >        2        1        2        4        8 </v>
   <v type="int" >        2        1        2        6        8 </v>
   <v type="int" >        2        1        3        7        8 </v>
   <v type="int" >        2        1        5        7        8 </v>
   <v type="int" >        2        1        5        6        8 </v>
  </varray>
  <i name="volumeweight">      0.02083333 </i>
 </kpoints>
 <parameters>
  <separator name="general" >
   <i type="string" name="SYSTEM">La2O2S</i>
   <i type="logical" name="LCOMPAT"> F  </i>
  </separator>
  <separator name="electronic" >
   <i type="string" name="PREC">normal</i>
   <i name="ENMAX">    600.00000000</i>
   <i name="ENAUG">    900.00000000</i>
   <i name="EDIFF">      0.00000100</i>
   <i type="int" name="IALGO">    38</i>
   <i type="int" name="IWAVPR">    11</i>
   <i type="int" name="NBANDS">   280</i>
   <i name="NELECT">    464.00000000</i>
   <i type="int" name="TURBO">     0</i>
   <i type="int" name="IRESTART">     0</i>
   <i type="int" name="NREBOOT">     0</i>
   <i type="int" name="NMIN">     0</i>
   <i name="EREF">      0.00000000</i>
   <separator name="electronic smearing" >
    <i type="int" name="ISMEAR">    -5</i>
    <i name="SIGMA">      0.20000000</i>
    <i name="KSPACING">      0.50000000</i>
    <i type="logical" name="KGAMMA"> T  </i>
   </separator>
   <separator name="electronic projectors" >
    <i type="logical" name="LREAL"> F  </i>
    <v name="ROPT">      0.00000000      0.00000000      0.00000000      0.00000000      0.00000000</v>
    <i type="int" name="LMAXPAW">  -100</i>
    <i type="int" name="LMAXMIX">     2</i>
    <i type="logical" name="NLSPLINE"> F  </i>
   </separator>
   <separator name="electronic startup" >
    <i type="int" name="ISTART">     0</i>
    <i type="int" name="ICHARG">     2</i>
    <i type="int" name="INIWAV">     1</i>
   </separator>
   <separator name="electronic spin" >
    <i type="int" name="ISPIN">     1</i>
    <i type="logical" name="LNONCOLLINEAR"> F  </i>
    <v name="MAGMOM">      1.00000000      1.00000000      1.00000000      1.00000000      1.00000000      1.00000000      1.00000000      1.00000000      1.00000000      1.00000000      1.00000000      1.00000000      1.00000000      1.00000000      1.00000000      1.00000000      1.00000000      1.00000000      1.00000000      1.00000000
      1.00000000      1.00000000      1.00000000      1.00000000      1.00000000      1.00000000      1.00000000      1.00000000      1.00000000      1.00000000      1.00000000      1.00000000      1.00000000      1.00000000      1.00000000      1.00000000      1.00000000      1.00000000      1.00000000      1.00000000
      1.00000000      1.00000000      1.00000000      1.00000000      1.00000000      1.00000000      1.00000000      1.00000000      1.00000000      1.00000000      1.00000000      1.00000000      1.00000000      1.00000000      1.00000000      1.00000000      1.00000000      1.00000000      1.00000000      1.00000000
</v>
    <i name="NUPDOWN">     -1.00000000</i>
    <i type="logical" name="LSORBIT"> F  </i>
    <v name="SAXIS">      0.00000000      0.00000000      1.00000000</v>
    <i type="logical" name="LSPIRAL"> F  </i>
    <v name="QSPIRAL">      0.00000000      0.00000000      0.00000000</v>
    <i type="logical" name="LZEROZ"> F  </i>
   </separator>
   <separator name="electronic exchange-correlation" >
    <i type="logical" name="LASPH"> F  </i>
    <i type="logical" name="LMETAGGA"> F  </i>
   </separator>
   <separator name="electronic convergence" >
    <i type="int" name="NELM">    60</i>
    <i type="int" name="NELMDL">    -5</i>
    <i type="int" name="NELMIN">     4</i>
    <i name="ENINI">    600.00000000</i>
    <separator name="electronic convergence detail" >
     <i type="logical" name="LDIAG"> T  </i>
     <i type="logical" name="LSUBROT"> F  </i>
     <i name="WEIMIN">      0.00100000</i>
     <i name="EBREAK">      0.00000000</i>
     <i name="DEPER">      0.30000000</i>
     <i type="int" name="NRMM">     4</i>
     <i name="TIME">      0.40000000</i>
    </separator>
   </separator>
   <separator name="electronic mixer" >
    <i name="AMIX">      0.40000000</i>
    <i name="BMIX">      1.00000000</i>
    <i name="AMIN">      0.10000000</i>
    <i name="AMIX_MAG">      1.60000000</i>
    <i name="BMIX_MAG">      1.00000000</i>
    <separator name="electronic mixer details" >
     <i type="int" name="IMIX">     4</i>
     <i type="logical" name="MIXFIRST"> F  </i>
     <i type="int" name="MAXMIX">   -45</i>
     <i name="WC">    100.00000000</i>
     <i type="int" name="INIMIX">     1</i>
     <i type="int" name="MIXPRE">     1</i>
     <i type="int" name="MREMOVE">     5</i>
    </separator>
   </separator>
   <separator name="electronic dipolcorrection" >
    <i type="logical" name="LDIPOL"> F  </i>
    <i type="logical" name="LMONO"> F  </i>
    <i type="int" name="IDIPOL">     0</i>
    <i name="EPSILON">      1.00000000</i>
    <v name="DIPOL">   -100.00000000   -100.00000000   -100.00000000</v>
    <i name="EFIELD">      0.00000000</i>
   </separator>
  </separator>
  <separator name="grids" >
   <i type="int" name="NGX">    70</i>
   <i type="int" name="NGY">    60</i>
   <i type="int" name="NGZ">    70</i>
   <i type="int" name="NGXF">   140</i>
   <i type="int" name="NGYF">   120</i>
   <i type="int" name="NGZF">   140</i>
   <i type="logical" name="ADDGRID"> F  </i>
  </separator>
  <separator name="ionic" >
   <i type="int" name="NSW">     1</i>
   <i type="int" name="IBRION">     2</i>
   <i type="int" name="MDALGO">     0</i>
   <i type="int" name="ISIF">     2</i>
   <i name="PSTRESS">      0.00000000</i>
   <i name="EDIFFG">     -0.01000000</i>
   <i type="int" name="NFREE">    10</i>
   <i name="POTIM">      0.50000000</i>
   <i name="SMASS">     -3.00000000</i>
   <i name="SCALEE">      1.00000000</i>
  </separator>
  <separator name="ionic md" >
   <i name="TEBEG">      0.00010000</i>
   <i name="TEEND">      0.00010000</i>
   <i type="int" name="NBLOCK">     1</i>
   <i type="int" name="KBLOCK">     1</i>
   <i type="int" name="NPACO">   256</i>
   <i name="APACO">     16.00000000</i>
  </separator>
  <separator name="symmetry" >
   <i type="int" name="ISYM">     2</i>
   <i name="SYMPREC">      0.00001000</i>
  </separator>
  <separator name="dos" >
   <i type="int" name="LORBIT">     0</i>
   <v name="RWIGS">     -1.00000000     -1.00000000     -1.00000000     -1.00000000     -1.00000000</v>
   <i type="int" name="NEDOS">   301</i>
   <i name="EMIN">     10.00000000</i>
   <i name="EMAX">    -10.00000000</i>
   <i name="EFERMI">      0.00000000</i>
  </separator>
  <separator name="writing" >
   <i type="int" name="NWRITE">     2</i>
   <i type="logical" name="LWAVE"> F  </i>
   <i type="logical" name="LDOWNSAMPLE"> F  </i>
   <i type="logical" name="LCHARG"> F  </i>
   <i type="logical" name="LPARD"> F  </i>
   <i type="logical" name="LVTOT"> F  </i>
   <i type="logical" name="LVHAR"> F  </i>
   <i type="logical" name="LELF"> F  </i>
   <i type="logical" name="LOPTICS"> F  </i>
   <v name="STM">      0.00000000      0.00000000      0.00000000      0.00000000      0.00000000      0.00000000      0.00000000</v>
  </separator>
  <separator name="performance" >
   <i type="int" name="NPAR">    28</i>
   <i type="int" name="NSIM">     4</i>
   <i type="int" name="NBLK">    -1</i>
   <i type="logical" name="LPLANE"> T  </i>
   <i type="logical" name="LSCALAPACK"> T  </i>
   <i type="logical" name="LSCAAWARE"> F  </i>
   <i type="logical" name="LSCALU"> F  </i>
   <i type="logical" name="LASYNC"> F  </i>
   <i type="logical" name="LORBITALREAL"> F  </i>
  </separator>
  <separator name="miscellaneous" >
   <i type="int" name="IDIOT">     3</i>
   <i type="int" name="ISPECIAL">     0</i>
   <i type="logical" name="LMUSIC"> F  </i>
   <v name="POMASS">      7.01000000     24.30500000    208.98000000     32.06600000     16.00000000</v>
   <v name="DARWINR">      0.00000000      0.00000000      0.00000000      0.00000000      0.00000000</v>
   <v name="DARWINV">      1.00000000      1.00000000      1.00000000      1.00000000      1.00000000</v>
   <i type="logical" name="LCORR"> T  </i>
  </separator>
  <i type="logical" name="GGA_COMPAT"> T  </i>
  <i type="logical" name="LBERRY"> F  </i>
  <i type="int" name="ICORELEVEL">     0</i>
  <i type="logical" name="LDAU"> F  </i>
  <i type="int" name="I_CONSTRAINED_M">     0</i>
  <separator name="electronic exchange-correlation" >
   <i type="string" name="GGA">--</i>
   <i type="int" name="VOSKOWN">     0</i>
   <i type="logical" name="LHFCALC"> F  </i>
   <i type="string" name="PRECFOCK"></i>
   <i type="logical" name="LSYMGRAD"> F  </i>
   <i type="logical" name="LHFONE"> F  </i>
   <i type="logical" name="LRHFCALC"> F  </i>
   <i type="logical" name="LTHOMAS"> F  </i>
   <i type="logical" name="LMODELHF"> F  </i>
   <i name="ENCUT4O">     -1.00000000</i>
   <i type="int" name="EXXOEP">     0</i>
   <i type="int" name="FOURORBIT">     0</i>
   <i name="AEXX">      0.00000000</i>
   <i name="HFALPHA">      0.00000000</i>
   <i name="MCALPHA">      0.00000000</i>
   <i name="ALDAX">      1.00000000</i>
   <i name="AGGAX">      1.00000000</i>
   <i name="ALDAC">      1.00000000</i>
   <i name="AGGAC">      1.00000000</i>
   <i type="int" name="NKREDX">     1</i>
   <i type="int" name="NKREDY">     1</i>
   <i type="int" name="NKREDZ">     1</i>
   <i type="logical" name="SHIFTRED"> F  </i>
   <i type="logical" name="ODDONLY"> F  </i>
   <i type="logical" name="EVENONLY"> F  </i>
   <i type="int" name="LMAXFOCK">     0</i>
   <i type="int" name="NMAXFOCKAE">     0</i>
   <i type="logical" name="LFOCKAEDFT"> F  </i>
   <i name="HFSCREEN">      0.00000000</i>
   <i name="HFSCREENC">      0.00000000</i>
   <i type="int" name="NBANDSGWLOW">     0</i>
  </separator>
  <separator name="vdW DFT" >
   <i type="logical" name="LUSE_VDW"> F  </i>
   <i name="Zab_VDW">     -0.84910000</i>
   <i name="PARAM1">      0.12340000</i>
   <i name="PARAM2">      1.00000000</i>
   <i name="PARAM3">      0.00000000</i>
  </separator>
  <separator name="model GW" >
   <i type="int" name="MODEL_GW">     0</i>
   <i name="MODEL_EPS0">     11.96848538</i>
   <i name="MODEL_ALPHA">      1.00000000</i>
  </separator>
  <separator name="linear response parameters" >
   <i type="logical" name="LEPSILON"> F  </i>
   <i type="logical" name="LRPA"> F  </i>
   <i type="logical" name="LNABLA"> F  </i>
   <i type="logical" name="LVEL"> F  </i>
   <i type="int" name="KINTER">     0</i>
   <i name="CSHIFT">      0.10000000</i>
   <i name="OMEGAMAX">     -1.00000000</i>
   <i name="DEG_THRESHOLD">      0.00200000</i>
   <i name="RTIME">     -0.10000000</i>
   <i name="WPLASMAI">      0.00000000</i>
   <v name="DFIELD">      0.00000000      0.00000000      0.00000000</v>
   <v name="WPLASMA">      0.00000000      0.00000000      0.00000000      0.00000000      0.00000000      0.00000000      0.00000000      0.00000000      0.00000000</v>
  </separator>
  <separator name="orbital magnetization" >
   <i type="logical" name="NUCIND"> F  </i>
   <v name="MAGPOS">      0.00000000      0.00000000      0.00000000</v>
   <i type="logical" name="LNICSALL"> T  </i>
   <i type="logical" name="ORBITALMAG"> F  </i>
   <i type="logical" name="LMAGBLOCH"> F  </i>
   <i type="logical" name="LCHIMAG"> F  </i>
   <i type="logical" name="LGAUGE"> T  </i>
   <i type="int" name="MAGATOM">     0</i>
   <v name="MAGDIPOL">      0.00000000      0.00000000      0.00000000</v>
   <v name="AVECCONST">      0.00000000      0.00000000      0.00000000</v>
  </separator>
  <separator name="response functions" >
   <i type="logical" name="LADDER"> F  </i>
   <i type="logical" name="LRPAFORCE"> F  </i>
   <i type="logical" name="LFXC"> F  </i>
   <i type="logical" name="LHARTREE"> T  </i>
   <i type="int" name="IBSE">     0</i>
   <v type="int" name="KPOINT">    -1     0     0     0</v>
   <i type="logical" name="LTCTE"> F  </i>
   <i type="logical" name="LTETE"> F  </i>
   <i type="logical" name="LTRIPLET"> F  </i>
   <i type="logical" name="LFXCEPS"> F  </i>
   <i type="logical" name="LFXHEG"> F  </i>
   <i type="int" name="NATURALO">     2</i>
   <i type="logical" name="L2ORDER"> F  </i>
   <i type="logical" name="LMP2LT"> F  </i>
   <i type="logical" name="LUSEW"> F  </i>
   <i name="ENCUTGW">     -2.00000000</i>
   <i name="ENCUTGWSOFT">     -2.00000000</i>
   <i name="ENCUTLF">     -1.00000000</i>
   <i type="int" name="LMAXMP2">    -1</i>
   <i name="SCISSOR">      0.00000000</i>
   <i type="int" name="NOMEGA">     0</i>
   <i type="int" name="NOMEGAR">     0</i>
   <i type="int" name="NBANDSGW">    -1</i>
   <i type="int" name="NBANDSO">    -1</i>
   <i type="int" name="NBANDSV">    -1</i>
   <i type="int" name="NELM">     1</i>
   <i type="int" name="NELMHF">     1</i>
   <i type="int" name="DIM">     3</i>
   <i type="int" name="ANTIRES">     0</i>
   <i name="OMEGAMAX">    -30.00000000</i>
   <i name="OMEGAMIN">    -30.00000000</i>
   <i name="OMEGATL">   -200.00000000</i>
   <i type="int" name="OMEGAGRID">   140</i>
   <i name="CSHIFT">     -0.10000000</i>
   <i type="logical" name="SELFENERGY"> F  </i>
   <i type="logical" name="LSPECTRAL"> F  </i>
   <i type="logical" name="LSPECTRALGW"> F  </i>
   <i type="logical" name="LSINGLES"> F  </i>
   <i type="logical" name="LFERMIGW"> F  </i>
   <i type="logical" name="ODDONLYGW"> F  </i>
   <i type="logical" name="EVENONLYGW"> F  </i>
   <i type="int" name="NKREDLFX">     1</i>
   <i type="int" name="NKREDLFY">     1</i>
   <i type="int" name="NKREDLFZ">     1</i>
   <i type="int" name="MAXMEM">  2800</i>
   <i type="int" name="TELESCOPE">     0</i>
   <i type="int" name="TAUPAR">     1</i>
   <i type="int" name="OMEGAPAR">    -1</i>
   <i name="LAMBDA">      1.00000000</i>
  </separator>
  <separator name="External order field" >
   <i name="OFIELD_KAPPA">      0.00000000</i>
   <v name="OFIELD_K">      0.00000000      0.00000000      0.00000000</v>
   <i name="OFIELD_Q6_NEAR">      0.00000000</i>
   <i name="OFIELD_Q6_FAR">      0.00000000</i>
   <i name="OFIELD_A">      0.00000000</i>
  </separator>
 </parameters>
 <atominfo>
  <atoms>      60 </atoms>
  <types>       5 </types>
  <array name="atoms" >
   <dimension dim="1">ion</dimension>
   <field type="string">element</field>
   <field type="int">atomtype</field>
   <set>
    <rc><c>Li</c><c>   1</c></rc>
    <rc><c>Li</c><c>   1</c></rc>
    <rc><c>Li</c><c>   1</c></rc>
    <rc><c>Li</c><c>   1</c></rc>
    <rc><c>Li</c><c>   1</c></rc>
    <rc><c>Li</c><c>   1</c></rc>
    <rc><c>Li</c><c>   1</c></rc>
    <rc><c>Li</c><c>   1</c></rc>
    <rc><c>Mg</c><c>   2</c></rc>
    <rc><c>Mg</c><c>   2</c></rc>
    <rc><c>Mg</c><c>   2</c></rc>
    <rc><c>Mg</c><c>   2</c></rc>
    <rc><c>Bi</c><c>   3</c></rc>
    <rc><c>Bi</c><c>   3</c></rc>
    <rc><c>Bi</c><c>   3</c></rc>
    <rc><c>Bi</c><c>   3</c></rc>
    <rc><c>Bi</c><c>   3</c></rc>
    <rc><c>Bi</c><c>   3</c></rc>
    <rc><c>Bi</c><c>   3</c></rc>
    <rc><c>Bi</c><c>   3</c></rc>
    <rc><c>Bi</c><c>   3</c></rc>
    <rc><c>Bi</c><c>   3</c></rc>
    <rc><c>Bi</c><c>   3</c></rc>
    <rc><c>Bi</c><c>   3</c></rc>
    <rc><c>Bi</c><c>   3</c></rc>
    <rc><c>Bi</c><c>   3</c></rc>
    <rc><c>Bi</c><c>   3</c></rc>
    <rc><c>Bi</c><c>   3</c></rc>
    <rc><c>S </c><c>   4</c></rc>
    <rc><c>S </c><c>   4</c></rc>
    <rc><c>S </c><c>   4</c></rc>
    <rc><c>S </c><c>   4</c></rc>
    <rc><c>S </c><c>   4</c></rc>
    <rc><c>S </c><c>   4</c></rc>
    <rc><c>S </c><c>   4</c></rc>
    <rc><c>S </c><c>   4</c></rc>
    <rc><c>S </c><c>   4</c></rc>
    <rc><c>S </c><c>   4</c></rc>
    <rc><c>S </c><c>   4</c></rc>
    <rc><c>S </c><c>   4</c></rc>
    <rc><c>S </c><c>   4</c></rc>
    <rc><c>S </c><c>   4</c></rc>
    <rc><c>S </c><c>   4</c></rc>
    <rc><c>S </c><c>   4</c></rc>
    <rc><c>O </c><c>   5</c></rc>
    <rc><c>O </c><c>   5</c></rc>
    <rc><c>O </c><c>   5</c></rc>
    <rc><c>O </c><c>   5</c></rc>
    <rc><c>O </c><c>   5</c></rc>
    <rc><c>O </c><c>   5</c></rc>
    <rc><c>O </c><c>   5</c></rc>
    <rc><c>O </c><c>   5</c></rc>
    <rc><c>O </c><c>   5</c></rc>
    <rc><c>O </c><c>   5</c></rc>
    <rc><c>O </c><c>   5</c></rc>
    <rc><c>O </c><c>   5</c></rc>
    <rc><c>O </c><c>   5</c></rc>
    <rc><c>O </c><c>   5</c></rc>
    <rc><c>O </c><c>   5</c></rc>
    <rc><c>O </c><c>   5</c></rc>
   </set>
  </array>
  <array name="atomtypes" >
   <dimension dim="1">type</dimension>
   <field type="int">atomspertype</field>
   <field type="string">element</field>
   <field>mass</field>
   <field>valence</field>
   <field type="string">pseudopotential</field>
   <set>
    <rc><c>   8</c><c>Li</c><c>      7.01000000</c><c>      3.00000000</c><c>  PAW_PBE Li_sv 10Sep2004               </c></rc>
    <rc><c>   4</c><c>Mg</c><c>     24.30500000</c><c>      2.00000000</c><c>  PAW_PBE Mg 13Apr2007                  </c></rc>
    <rc><c>  16</c><c>Bi</c><c>    208.98000000</c><c>     15.00000000</c><c>  PAW_PBE Bi_d 06Sep2000                </c></rc>
    <rc><c>  16</c><c>S </c><c>     32.06600000</c><c>      6.00000000</c><c>  PAW_PBE S 06Sep2000                   </c></rc>
    <rc><c>  16</c><c>O </c><c>     16.00000000</c><c>      6.00000000</c><c>  PAW_PBE O 08Apr2002                   </c></rc>
   </set>
  </array>
 </atominfo>
 <structure name="initialpos" >
  <crystal>
   <varray name="basis" >
    <v>      11.17850000       0.00000000       0.00000000 </v>
    <v>       0.00000000       9.57460000       0.00000000 </v>
    <v>       0.00000000       0.00000000      11.18240000 </v>
   </varray>
   <i name="volume">   1196.84853820 </i>
   <varray name="rec_basis" >
    <v>       0.08945744       0.00000000       0.00000000 </v>
    <v>       0.00000000       0.10444301       0.00000000 </v>
    <v>       0.00000000       0.00000000       0.08942624 </v>
   </varray>
  </crystal>
  <varray name="positions" >
   <v>       0.37539000       0.00017000       0.43687000 </v>
   <v>       0.12461000       0.99984000       0.18687000 </v>
   <v>       0.62539000       0.99984000       0.43687000 </v>
   <v>       0.87461000       0.00017000       0.18687000 </v>
   <v>       0.37539000       0.00017000       0.93687000 </v>
   <v>       0.37461000       0.00017000       0.68687000 </v>
   <v>       0.62539000       0.99984000       0.93687000 </v>
   <v>       0.62461000       0.99984000       0.68687000 </v>
   <v>       0.37461000       0.00017000       0.18687000 </v>
   <v>       0.87539000       0.00017000       0.43687000 </v>
   <v>       0.12461000       0.99984000       0.68687000 </v>
   <v>       0.87539000       0.00017000       0.93687000 </v>
   <v>       0.00013000       0.29519000       0.06281000 </v>
   <v>       0.25013000       0.70481000       0.06281000 </v>
   <v>       0.24987000       0.29519000       0.31282000 </v>
   <v>       0.49987000       0.70481000       0.31282000 </v>
   <v>       0.50013000       0.29519000       0.06281000 </v>
   <v>       0.75013000       0.70481000       0.06281000 </v>
   <v>       0.74987000       0.29519000       0.31282000 </v>
   <v>       0.99987000       0.70481000       0.31282000 </v>
   <v>       0.00013000       0.29519000       0.56281000 </v>
   <v>       0.25013000       0.70481000       0.56281000 </v>
   <v>       0.24987000       0.29519000       0.81282000 </v>
   <v>       0.49987000       0.70481000       0.81282000 </v>
   <v>       0.50013000       0.29519000       0.56281000 </v>
   <v>       0.75013000       0.70481000       0.56281000 </v>
   <v>       0.74987000       0.29519000       0.81282000 </v>
   <v>       0.99987000       0.70481000       0.81282000 </v>
   <v>       0.25005000       0.32677000       0.06286000 </v>
   <v>       0.00005000       0.67323000       0.06286000 </v>
   <v>       0.49995000       0.32677000       0.31286000 </v>
   <v>       0.24995000       0.67323000       0.31286000 </v>
   <v>       0.75005000       0.32677000       0.06286000 </v>
   <v>       0.50005000       0.67323000       0.06286000 </v>
   <v>       0.99995000       0.32677000       0.31286000 </v>
   <v>       0.74995000       0.67323000       0.31286000 </v>
   <v>       0.25005000       0.32677000       0.56286000 </v>
   <v>       0.00005000       0.67323000       0.56286000 </v>
   <v>       0.49995000       0.32677000       0.81286000 </v>
   <v>       0.24995000       0.67323000       0.81286000 </v>
   <v>       0.75005000       0.32677000       0.56286000 </v>
   <v>       0.50005000       0.67323000       0.56286000 </v>
   <v>       0.99995000       0.32677000       0.81286000 </v>
   <v>       0.74995000       0.67323000       0.81286000 </v>
   <v>       0.49987000       0.07798000       0.06246000 </v>
   <v>       0.24987000       0.92202000       0.06246000 </v>
   <v>       0.25013000       0.07798000       0.31246000 </v>
   <v>       0.00013000       0.92202000       0.31246000 </v>
   <v>       0.99987000       0.07798000       0.06246000 </v>
   <v>       0.74987000       0.92202000       0.06246000 </v>
   <v>       0.75013000       0.07798000       0.31246000 </v>
   <v>       0.50013000       0.92202000       0.31246000 </v>
   <v>       0.49987000       0.07798000       0.56246000 </v>
   <v>       0.24987000       0.92202000       0.56246000 </v>
   <v>       0.25013000       0.07798000       0.81246000 </v>
   <v>       0.00013000       0.92202000       0.81246000 </v>
   <v>       0.99987000       0.07798000       0.56246000 </v>
   <v>       0.74987000       0.92202000       0.56246000 </v>
   <v>       0.75013000       0.07798000       0.81246000 </v>
   <v>       0.50013000       0.92202000       0.81246000 </v>
  </varray>
 </structure>
 <calculation>
  <scstep>
   <time name="dav">   60.37   60.48</time>
   <time name="total">   60.45   60.57</time>
   <energy>
    <i name="alphaZ">   1067.11773629 </i>
    <i name="ewald"> -30650.26633660 </i>
    <i name="hartreedc"> -12703.89070826 </i>
    <i name="XCdc">   1321.05238391 </i>
    <i name="pawpsdc">  36729.48549953 </i>
    <i name="pawaedc"> -36149.63912807 </i>
    <i name="eentropy">      0.00000000 </i>
    <i name="bandstr">   1841.99655430 </i>
    <i name="atom">  44408.54722957 </i>
    <i name="e_fr_energy">   5864.40323065 </i>
    <i name="e_wo_entrp">   5864.40323065 </i>
    <i name="e_0_energy">   5864.40323065 </i>
   </energy>
  </scstep>
  <scstep>
   <time name="dav">   61.41   61.67</time>
   <time name="total">   61.42   61.68</time>
   <energy>
    <i name="e_fr_energy">    772.29803539 </i>
    <i name="e_wo_entrp">    772.29803539 </i>
    <i name="e_0_energy">    772.29803539 </i>
   </energy>
  </scstep>
  <scstep>
   <time name="dav">   71.10   71.17</time>
   <time name="total">   71.10   71.17</time>
   <energy>
    <i name="e_fr_energy">   -246.94043806 </i>
    <i name="e_wo_entrp">   -246.94043806 </i>
    <i name="e_0_energy">   -246.94043806 </i>
   </energy>
  </scstep>
  <scstep>
   <time name="dav">   72.93   73.12</time>
   <time name="total">   72.93   73.12</time>
   <energy>
    <i name="e_fr_energy">   -341.39867683 </i>
    <i name="e_wo_entrp">   -341.39867683 </i>
    <i name="e_0_energy">   -341.39867683 </i>
   </energy>
  </scstep>
  <scstep>
   <time name="dav">   96.75   96.94</time>
   <time name="total">   97.49   97.69</time>
   <energy>
    <i name="e_fr_energy">   -349.61474742 </i>
    <i name="e_wo_entrp">   -349.61474742 </i>
    <i name="e_0_energy">   -349.61474742 </i>
   </energy>
  </scstep>
  <scstep>
   <time name="dav">   85.17   85.89</time>
   <time name="total">   85.96   86.68</time>
   <energy>
    <i name="e_fr_energy">   -292.72881956 </i>
    <i name="e_wo_entrp">   -292.72881956 </i>
    <i name="e_0_energy">   -292.72881956 </i>
   </energy>
  </scstep>
  <scstep>
   <time name="dav">   66.04   66.26</time>
   <time name="total">   66.83   67.06</time>
   <energy>
    <i name="e_fr_energy">   -295.49006113 </i>
    <i name="e_wo_entrp">   -295.49006113 </i>
    <i name="e_0_energy">   -295.49006113 </i>
   </energy>
  </scstep>
  <scstep>
   <time name="dav">   78.14   78.36</time>
   <time name="total">   78.92   79.14</time>
   <energy>
    <i name="e_fr_energy">   -294.38395458 </i>
    <i name="e_wo_entrp">   -294.38395458 </i>
    <i name="e_0_energy">   -294.38395458 </i>
   </energy>
  </scstep>
  <scstep>
   <time name="dav">   80.36   80.46</time>
   <time name="total">   81.14   81.25</time>
   <energy>
    <i name="e_fr_energy">   -293.80578748 </i>
    <i name="e_wo_entrp">   -293.80578748 </i>
    <i name="e_0_energy">   -293.80578748 </i>
   </energy>
  </scstep>
  <scstep>
   <time name="dav">   72.49   72.60</time>
   <time name="total">   73.27   73.39</time>
   <energy>
    <i name="e_fr_energy">   -293.81383608 </i>
    <i name="e_wo_entrp">   -293.81383608 </i>
    <i name="e_0_energy">   -293.81383608 </i>
   </energy>
  </scstep>
  <scstep>
   <time name="dav">   84.63   84.68</time>
   <time name="total">   85.41   85.47</time>
   <energy>
    <i name="e_fr_energy">   -293.82560765 </i>
    <i name="e_wo_entrp">   -293.82560765 </i>
    <i name="e_0_energy">   -293.82560765 </i>
   </energy>
  </scstep>
  <scstep>
   <time name="dav">   80.82   80.83</time>
   <time name="total">   81.61   81.63</time>
   <energy>
    <i name="e_fr_energy">   -293.82863369 </i>
    <i name="e_wo_entrp">   -293.82863369 </i>
    <i name="e_0_energy">   -293.82863369 </i>
   </energy>
  </scstep>
  <scstep>
   <time name="dav">   69.25   69.34</time>
   <time name="total">   70.05   70.14</time>
   <energy>
    <i name="e_fr_energy">   -293.82951532 </i>
    <i name="e_wo_entrp">   -293.82951532 </i>
    <i name="e_0_energy">   -293.82951532 </i>
   </energy>
  </scstep>
  <scstep>
   <time name="dav">   80.28   80.28</time>
   <time name="total">   81.07   81.07</time>
   <energy>
    <i name="e_fr_energy">   -293.82959448 </i>
    <i name="e_wo_entrp">   -293.82959448 </i>
    <i name="e_0_energy">   -293.82959448 </i>
   </energy>
  </scstep>
  <scstep>
   <time name="dav">   80.37   80.38</time>
   <time name="total">   81.15   81.17</time>
   <energy>
    <i name="e_fr_energy">   -293.82962232 </i>
    <i name="e_wo_entrp">   -293.82962232 </i>
    <i name="e_0_energy">   -293.82962232 </i>
   </energy>
  </scstep>
  <scstep>
   <time name="dav">   62.05   62.08</time>
   <time name="total">   62.87   62.89</time>
   <energy>
    <i name="e_fr_energy">   -293.82962955 </i>
    <i name="e_wo_entrp">   -293.82962955 </i>
    <i name="e_0_energy">   -293.82962955 </i>
   </energy>
  </scstep>
  <scstep>
   <time name="dav">   65.49   65.63</time>
   <time name="total">   66.27   66.42</time>
   <energy>
    <i name="e_fr_energy">   -293.82963078 </i>
    <i name="e_wo_entrp">   -293.82963078 </i>
    <i name="e_0_energy">   -293.82963078 </i>
   </energy>
  </scstep>
  <scstep>
   <time name="dav">   52.56   52.62</time>
   <time name="total">   52.63   52.69</time>
   <energy>
    <i name="alphaZ">   1067.11773629 </i>
    <i name="ewald"> -30650.26633660 </i>
    <i name="hartreedc"> -12942.42740855 </i>
    <i name="XCdc">   1345.29771503 </i>
    <i name="pawpsdc">  43749.23232119 </i>
    <i name="pawaedc"> -43143.10234539 </i>
    <i name="eentropy">      0.00000000 </i>
    <i name="bandstr">  -4128.22854233 </i>
    <i name="atom">  44408.54722957 </i>
    <i name="e_fr_energy">   -293.82963080 </i>
    <i name="e_wo_entrp">   -293.82963080 </i>
    <i name="e_0_energy">   -293.82963080 </i>
   </energy>
  </scstep>
  <structure>
   <crystal>
    <varray name="basis" >
     <v>      11.17850000       0.00000000       0.00000000 </v>
     <v>       0.00000000       9.57460000       0.00000000 </v>
     <v>       0.00000000       0.00000000      11.18240000 </v>
    </varray>
    <i name="volume">   1196.84853820 </i>
    <varray name="rec_basis" >
     <v>       0.08945744       0.00000000       0.00000000 </v>
     <v>       0.00000000       0.10444301       0.00000000 </v>
     <v>       0.00000000       0.00000000       0.08942624 </v>
    </varray>
   </crystal>
   <varray name="positions" >
    <v>       0.37539000       0.00017000       0.43687000 </v>
    <v>       0.12461000       0.99984000       0.18687000 </v>
    <v>       0.62539000       0.99984000       0.43687000 </v>
    <v>       0.87461000       0.00017000       0.18687000 </v>
    <v>       0.37539000       0.00017000       0.93687000 </v>
    <v>       0.37461000       0.00017000       0.68687000 </v>
    <v>       0.62539000       0.99984000       0.93687000 </v>
    <v>       0.62461000       0.99984000       0.68687000 </v>
    <v>       0.37461000       0.00017000       0.18687000 </v>
    <v>       0.87539000       0.00017000       0.43687000 </v>
    <v>       0.12461000       0.99984000       0.68687000 </v>
    <v>       0.87539000       0.00017000       0.93687000 </v>
    <v>       0.00013000       0.29519000       0.06281000 </v>
    <v>       0.25013000       0.70481000       0.06281000 </v>
    <v>       0.24987000       0.29519000       0.31282000 </v>
    <v>       0.49987000       0.70481000       0.31282000 </v>
    <v>       0.50013000       0.29519000       0.06281000 </v>
    <v>       0.75013000       0.70481000       0.06281000 </v>
    <v>       0.74987000       0.29519000       0.31282000 </v>
    <v>       0.99987000       0.70481000       0.31282000 </v>
    <v>       0.00013000       0.29519000       0.56281000 </v>
    <v>       0.25013000       0.70481000       0.56281000 </v>
    <v>       0.24987000       0.29519000       0.81282000 </v>
    <v>       0.49987000       0.70481000       0.81282000 </v>
    <v>       0.50013000       0.29519000       0.56281000 </v>
    <v>       0.75013000       0.70481000       0.56281000 </v>
    <v>       0.74987000       0.29519000       0.81282000 </v>
    <v>       0.99987000       0.70481000       0.81282000 </v>
    <v>       0.25005000       0.32677000       0.06286000 </v>
    <v>       0.00005000       0.67323000       0.06286000 </v>
    <v>       0.49995000       0.32677000       0.31286000 </v>
    <v>       0.24995000       0.67323000       0.31286000 </v>
    <v>       0.75005000       0.32677000       0.06286000 </v>
    <v>       0.50005000       0.67323000       0.06286000 </v>
    <v>       0.99995000       0.32677000       0.31286000 </v>
    <v>       0.74995000       0.67323000       0.31286000 </v>
    <v>       0.25005000       0.32677000       0.56286000 </v>
    <v>       0.00005000       0.67323000       0.56286000 </v>
    <v>       0.49995000       0.32677000       0.81286000 </v>
    <v>       0.24995000       0.67323000       0.81286000 </v>
    <v>       0.75005000       0.32677000       0.56286000 </v>
    <v>       0.50005000       0.67323000       0.56286000 </v>
    <v>       0.99995000       0.32677000       0.81286000 </v>
    <v>       0.74995000       0.67323000       0.81286000 </v>
    <v>       0.49987000       0.07798000       0.06246000 </v>
    <v>       0.24987000       0.92202000       0.06246000 </v>
    <v>       0.25013000       0.07798000       0.31246000 </v>
    <v>       0.00013000       0.92202000       0.31246000 </v>
    <v>       0.99987000       0.07798000       0.06246000 </v>
    <v>       0.74987000       0.92202000       0.06246000 </v>
    <v>       0.75013000       0.07798000       0.31246000 </v>
    <v>       0.50013000       0.92202000       0.31246000 </v>
    <v>       0.49987000       0.07798000       0.56246000 </v>
    <v>       0.24987000       0.92202000       0.56246000 </v>
    <v>       0.25013000       0.07798000       0.81246000 </v>
    <v>       0.00013000       0.92202000       0.81246000 </v>
    <v>       0.99987000       0.07798000       0.56246000 </v>
    <v>       0.74987000       0.92202000       0.56246000 </v>
    <v>       0.75013000       0.07798000       0.81246000 </v>
    <v>       0.50013000       0.92202000       0.81246000 </v>
   </varray>
  </structure>
  <varray name="forces" >
   <v>      -0.25434918      -0.00051146       0.22432275 </v>
   <v>      -0.29982298      -0.00029849       0.00543130 </v>
   <v>      -0.24579589      -0.00183050      -0.25572281 </v>
   <v>      -0.17785852      -0.00265263       0.00547503 </v>
   <v>      -0.25490362      -0.00138361      -0.21450052 </v>
   <v>       0.14426956       0.00021241       0.00707819 </v>
   <v>      -0.24510788      -0.00072554       0.26849111 </v>
   <v>       0.35374968      -0.00015732       0.00427889 </v>
   <v>       0.57975292      -0.00524794       0.03400543 </v>
   <v>       0.56690421      -0.00887870       0.62673156 </v>
   <v>      -0.60987465       0.00522751       0.03053067 </v>
   <v>       0.56608960      -0.00690006      -0.56212446 </v>
   <v>       0.17476785       0.00772139      -0.03608245 </v>
   <v>      -0.18074329      -0.02020563      -0.19699439 </v>
   <v>      -0.16770138       0.00512511       0.18822253 </v>
   <v>       0.18641789       0.04563836      -0.04030750 </v>
   <v>       0.17971210      -0.04220313       0.03104526 </v>
   <v>      -0.19986775      -0.00476330       0.18962843 </v>
   <v>      -0.18943326       0.02726271      -0.19920337 </v>
   <v>       0.19163427      -0.00426353       0.02549291 </v>
   <v>      -0.01919319      -0.10745487      -0.02467901 </v>
   <v>       0.00079002       0.00567442      -0.19747588 </v>
   <v>       0.00830168      -0.02466135       0.18744307 </v>
   <v>      -0.00363978      -0.03071810      -0.02173775 </v>
   <v>      -0.01537705       0.03039615       0.01354146 </v>
   <v>       0.00869416       0.02650975       0.18510519 </v>
   <v>       0.01658452      -0.00788005      -0.19513789 </v>
   <v>       0.00244555       0.10819020       0.01592793 </v>
   <v>       0.05552818       0.14937788       0.06315813 </v>
   <v>      -0.05610266      -0.15190753      -0.01558431 </v>
   <v>      -0.05390704       0.14318874      -0.02012309 </v>
   <v>       0.05700365      -0.15173887      -0.06316769 </v>
   <v>       0.05828119       0.15007415      -0.05571227 </v>
   <v>      -0.05998425      -0.14336498       0.01885275 </v>
   <v>      -0.06008718       0.14943961       0.01490558 </v>
   <v>       0.05961913      -0.15011467       0.05554202 </v>
   <v>      -0.01078586       0.14554427       0.05586697 </v>
   <v>       0.00495625      -0.08832629      -0.01389902 </v>
   <v>       0.00463671       0.19703092      -0.00856248 </v>
   <v>      -0.00825276      -0.14696135      -0.05763058 </v>
   <v>       0.00380249       0.14652005      -0.06563102 </v>
   <v>      -0.00056867      -0.19739153       0.00905310 </v>
   <v>       0.00001336       0.08774747       0.01471315 </v>
   <v>       0.00607109      -0.14632738       0.06352315 </v>
   <v>      -1.08163538       0.06900309      -0.15587819 </v>
   <v>       1.05664002       0.02505765       1.04949079 </v>
   <v>       1.05242330      -0.02108578      -1.05981331 </v>
   <v>      -1.09764666      -0.05269098      -0.14915328 </v>
   <v>      -1.08947351       0.05071756       0.14094238 </v>
   <v>       1.08305729       0.03487035      -1.07580342 </v>
   <v>       1.05853619      -0.03333485       1.05944025 </v>
   <v>      -1.10062495      -0.06147094       0.14129990 </v>
   <v>       0.00223973      -0.01644610       0.00260667 </v>
   <v>       0.14667119      -0.05219921       1.09713610 </v>
   <v>       0.12616416       0.05382974      -1.11207045 </v>
   <v>       0.00271475      -0.29513440      -0.01139945 </v>
   <v>       0.00723995       0.29612453      -0.00014237 </v>
   <v>      -0.12745132      -0.05713970      -1.10426266 </v>
   <v>      -0.14806806       0.05828883       1.08877851 </v>
   <v>      -0.00745592       0.01759792      -0.00526155 </v>
  </varray>
  <varray name="stress" >
   <v>      -8.53614562      -0.11578549       0.00042108 </v>
   <v>      -0.11578550     -14.09571910       0.05043154 </v>
   <v>       0.00042116       0.05043164      -9.57596874 </v>
  </varray>
  <energy>
   <i name="e_fr_energy">   -307.41447711 </i>
   <i name="e_wo_entrp">   -307.41447711 </i>
   <i name="e_0_energy">      0.00000000 </i>
  </energy>
  <time name="totalsc"> 1438.78 1441.70</time>
  <eigenvalues>
   <array>
    <dimension dim="1">band</dimension>
    <dimension dim="2">kpoint</dimension>
    <dimension dim="3">spin</dimension>
    <field>eigene</field>
    <field>occ</field>
    <set>
     <set comment="spin 1">
      <set comment="kpoint 1">
       <r>  -39.8678    1.0000 </r>
       <r>  -39.8603    1.0000 </r>
       <r>  -39.8250    1.0000 </r>
       <r>  -39.8249    1.0000 </r>
       <r>  -39.8158    1.0000 </r>
       <r>  -39.8155    1.0000 </r>
       <r>  -39.7894    1.0000 </r>
       <r>  -39.7793    1.0000 </r>
       <r>  -18.6948    1.0000 </r>
       <r>  -18.6929    1.0000 </r>
       <r>  -18.6845    1.0000 </r>
       <r>  -18.6826    1.0000 </r>
       <r>  -18.6705    1.0000 </r>
       <r>  -18.6691    1.0000 </r>
       <r>  -18.6686    1.0000 </r>
       <r>  -18.6683    1.0000 </r>
       <r>  -18.6663    1.0000 </r>
       <r>  -18.6659    1.0000 </r>
       <r>  -18.6657    1.0000 </r>
       <r>  -18.6647    1.0000 </r>
       <r>  -18.6645    1.0000 </r>
       <r>  -18.6626    1.0000 </r>
       <r>  -18.6610    1.0000 </r>
       <r>  -18.6592    1.0000 </r>
       <r>  -18.6589    1.0000 </r>
       <r>  -18.6577    1.0000 </r>
       <r>  -18.6565    1.0000 </r>
       <r>  -18.6559    1.0000 </r>
       <r>  -18.6553    1.0000 </r>
       <r>  -18.6545    1.0000 </r>
       <r>  -18.6542    1.0000 </r>
       <r>  -18.6539    1.0000 </r>
       <r>  -18.6514    1.0000 </r>
       <r>  -18.6508    1.0000 </r>
       <r>  -18.6500    1.0000 </r>
       <r>  -18.6498    1.0000 </r>
       <r>  -18.6493    1.0000 </r>
       <r>  -18.6490    1.0000 </r>
       <r>  -18.6483    1.0000 </r>
       <r>  -18.6471    1.0000 </r>
       <r>  -18.6442    1.0000 </r>
       <r>  -18.6426    1.0000 </r>
       <r>  -18.6423    1.0000 </r>
       <r>  -18.6406    1.0000 </r>
       <r>  -18.6369    1.0000 </r>
       <r>  -18.6357    1.0000 </r>
       <r>  -18.6345    1.0000 </r>
       <r>  -18.6341    1.0000 </r>
       <r>  -18.6301    1.0000 </r>
       <r>  -18.6283    1.0000 </r>
       <r>  -18.6283    1.0000 </r>
       <r>  -18.6276    1.0000 </r>
       <r>  -18.6228    1.0000 </r>
       <r>  -18.6213    1.0000 </r>
       <r>  -18.6163    1.0000 </r>
       <r>  -18.6146    1.0000 </r>
       <r>  -18.5118    1.0000 </r>
       <r>  -18.5115    1.0000 </r>
       <r>  -18.5109    1.0000 </r>
       <r>  -18.5099    1.0000 </r>
       <r>  -18.5074    1.0000 </r>
       <r>  -18.5070    1.0000 </r>
       <r>  -18.5065    1.0000 </r>
       <r>  -18.5061    1.0000 </r>
       <r>  -18.5050    1.0000 </r>
       <r>  -18.5044    1.0000 </r>
       <r>  -18.5042    1.0000 </r>
       <r>  -18.5036    1.0000 </r>
       <r>  -18.5026    1.0000 </r>
       <r>  -18.4999    1.0000 </r>
       <r>  -18.4990    1.0000 </r>
       <r>  -18.4970    1.0000 </r>
       <r>  -18.4966    1.0000 </r>
       <r>  -18.4954    1.0000 </r>
       <r>  -18.4953    1.0000 </r>
       <r>  -18.4940    1.0000 </r>
       <r>  -18.4925    1.0000 </r>
       <r>  -18.4923    1.0000 </r>
       <r>  -18.4916    1.0000 </r>
       <r>  -18.4909    1.0000 </r>
       <r>  -18.4906    1.0000 </r>
       <r>  -18.4871    1.0000 </r>
       <r>  -18.4861    1.0000 </r>
       <r>  -18.4858    1.0000 </r>
       <r>  -18.4856    1.0000 </r>
       <r>  -18.4836    1.0000 </r>
       <r>  -18.4700    1.0000 </r>
       <r>  -18.4687    1.0000 </r>
       <r>  -12.9693    1.0000 </r>
       <r>  -12.8438    1.0000 </r>
       <r>  -12.8221    1.0000 </r>
       <r>  -12.8122    1.0000 </r>
       <r>  -12.7676    1.0000 </r>
       <r>  -12.7319    1.0000 </r>
       <r>  -12.7195    1.0000 </r>
       <r>  -12.6906    1.0000 </r>
       <r>  -12.6886    1.0000 </r>
       <r>  -12.6796    1.0000 </r>
       <r>  -12.6661    1.0000 </r>
       <r>  -12.6556    1.0000 </r>
       <r>  -12.6484    1.0000 </r>
       <r>  -12.6301    1.0000 </r>
       <r>  -12.6287    1.0000 </r>
       <r>  -12.6205    1.0000 </r>
       <r>   -9.3302    1.0000 </r>
       <r>   -9.0328    1.0000 </r>
       <r>   -8.5040    1.0000 </r>
       <r>   -8.5007    1.0000 </r>
       <r>   -8.5004    1.0000 </r>
       <r>   -8.4952    1.0000 </r>
       <r>   -8.2761    1.0000 </r>
       <r>   -8.2736    1.0000 </r>
       <r>   -8.2734    1.0000 </r>
       <r>   -8.2693    1.0000 </r>
       <r>   -8.0448    1.0000 </r>
       <r>   -8.0431    1.0000 </r>
       <r>   -8.0396    1.0000 </r>
       <r>   -8.0379    1.0000 </r>
       <r>   -7.3774    1.0000 </r>
       <r>   -7.3758    1.0000 </r>
       <r>   -6.3652    1.0000 </r>
       <r>   -6.3629    1.0000 </r>
       <r>   -6.3510    1.0000 </r>
       <r>   -6.3486    1.0000 </r>
       <r>   -5.4664    1.0000 </r>
       <r>   -5.4644    1.0000 </r>
       <r>   -5.3601    1.0000 </r>
       <r>   -5.3520    1.0000 </r>
       <r>   -5.3517    1.0000 </r>
       <r>   -5.3498    1.0000 </r>
       <r>   -5.1911    1.0000 </r>
       <r>   -5.1844    1.0000 </r>
       <r>   -5.1828    1.0000 </r>
       <r>   -5.1803    1.0000 </r>
       <r>   -3.8336    1.0000 </r>
       <r>   -3.6828    1.0000 </r>
       <r>   -1.4211    1.0000 </r>
       <r>   -1.3404    1.0000 </r>
       <r>   -1.0863    1.0000 </r>
       <r>   -1.0234    1.0000 </r>
       <r>   -0.5173    1.0000 </r>
       <r>   -0.5031    1.0000 </r>
       <r>   -0.4960    1.0000 </r>
       <r>   -0.4690    1.0000 </r>
       <r>   -0.1777    1.0000 </r>
       <r>   -0.1700    1.0000 </r>
       <r>   -0.1667    1.0000 </r>
       <r>   -0.1513    1.0000 </r>
       <r>    0.3325    1.0000 </r>
       <r>    0.3838    1.0000 </r>
       <r>    0.4349    1.0000 </r>
       <r>    0.4942    1.0000 </r>
       <r>    0.6214    1.0000 </r>
       <r>    0.6228    1.0000 </r>
       <r>    0.6771    1.0000 </r>
       <r>    0.7034    1.0000 </r>
       <r>    0.7084    1.0000 </r>
       <r>    0.7143    1.0000 </r>
       <r>    0.7483    1.0000 </r>
       <r>    0.8016    1.0000 </r>
       <r>    0.8559    1.0000 </r>
       <r>    0.8603    1.0000 </r>
       <r>    0.9215    1.0000 </r>
       <r>    0.9319    1.0000 </r>
       <r>    0.9840    1.0000 </r>
       <r>    0.9871    1.0000 </r>
       <r>    1.0666    1.0000 </r>
       <r>    1.0970    1.0000 </r>
       <r>    1.1590    1.0000 </r>
       <r>    1.1736    1.0000 </r>
       <r>    1.2959    1.0000 </r>
       <r>    1.3082    1.0000 </r>
       <r>    1.3097    1.0000 </r>
       <r>    1.3180    1.0000 </r>
       <r>    1.3653    1.0000 </r>
       <r>    1.3913    1.0000 </r>
       <r>    1.4942    1.0000 </r>
       <r>    1.5685    1.0000 </r>
       <r>    1.6714    1.0000 </r>
       <r>    1.7092    1.0000 </r>
       <r>    1.7321    1.0000 </r>
       <r>    1.7421    1.0000 </r>
       <r>    1.7617    1.0000 </r>
       <r>    1.7695    1.0000 </r>
       <r>    1.8180    1.0000 </r>
       <r>    1.8876    1.0000 </r>
       <r>    1.9211    1.0000 </r>
       <r>    1.9220    1.0000 </r>
       <r>    1.9695    1.0000 </r>
       <r>    1.9830    1.0000 </r>
       <r>    2.1382    1.0000 </r>
       <r>    2.1997    1.0000 </r>
       <r>    2.2605    1.0000 </r>
       <r>    2.4219    1.0000 </r>
       <r>    2.5612    1.0000 </r>
       <r>    2.5647    1.0000 </r>
       <r>    2.5699    1.0000 </r>
       <r>    2.5805    1.0000 </r>
       <r>    2.5875    1.0000 </r>
       <r>    2.6604    1.0000 </r>
       <r>    2.6922    1.0000 </r>
       <r>    2.6979    1.0000 </r>
       <r>    2.6999    1.0000 </r>
       <r>    2.7010    1.0000 </r>
       <r>    2.7155    1.0000 </r>
       <r>    2.7391    1.0000 </r>
       <r>    2.7752    1.0000 </r>
       <r>    2.7839    1.0000 </r>
       <r>    2.8257    1.0000 </r>
       <r>    2.8578    1.0000 </r>
       <r>    2.8881    1.0000 </r>
       <r>    2.8924    1.0000 </r>
       <r>    2.9305    1.0000 </r>
       <r>    2.9527    1.0000 </r>
       <r>    2.9766    1.0000 </r>
       <r>    2.9791    1.0000 </r>
       <r>    3.0220    1.0000 </r>
       <r>    3.0522    1.0000 </r>
       <r>    3.0684    1.0000 </r>
       <r>    3.1161    1.0000 </r>
       <r>    3.1556    1.0000 </r>
       <r>    3.1610    1.0000 </r>
       <r>    3.1613    1.0000 </r>
       <r>    3.1698    1.0000 </r>
       <r>    3.3812    1.0000 </r>
       <r>    3.3958    1.0000 </r>
       <r>    3.3982    1.0000 </r>
       <r>    3.4270    1.0000 </r>
       <r>    4.1666    1.0000 </r>
       <r>    4.1743    1.0000 </r>
       <r>    4.1895    1.0000 </r>
       <r>    4.1954    1.0000 </r>
       <r>    5.0539    0.0000 </r>
       <r>    5.0604    0.0000 </r>
       <r>    5.1295    0.0000 </r>
       <r>    5.1366    0.0000 </r>
       <r>    5.7542    0.0000 </r>
       <r>    5.7600    0.0000 </r>
       <r>    5.7995    0.0000 </r>
       <r>    5.8072    0.0000 </r>
       <r>    6.0986    0.0000 </r>
       <r>    6.1031    0.0000 </r>
       <r>    6.1042    0.0000 </r>
       <r>    6.1076    0.0000 </r>
       <r>    6.2189    0.0000 </r>
       <r>    6.2240    0.0000 </r>
       <r>    6.2252    0.0000 </r>
       <r>    6.2283    0.0000 </r>
       <r>    7.1731    0.0000 </r>
       <r>    7.2038    0.0000 </r>
       <r>    7.2764    0.0000 </r>
       <r>    7.3198    0.0000 </r>
       <r>    7.9091    0.0000 </r>
       <r>    7.9119    0.0000 </r>
       <r>    7.9139    0.0000 </r>
       <r>    7.9207    0.0000 </r>
       <r>    7.9446    0.0000 </r>
       <r>    8.0396    0.0000 </r>
       <r>    8.0512    0.0000 </r>
       <r>    8.0953    0.0000 </r>
       <r>    8.3324    0.0000 </r>
       <r>    8.5267    0.0000 </r>
       <r>    8.6271    0.0000 </r>
       <r>    8.7246    0.0000 </r>
       <r>    8.7265    0.0000 </r>
       <r>    8.9002    0.0000 </r>
       <r>    8.9795    0.0000 </r>
       <r>    8.9905    0.0000 </r>
       <r>    9.0340    0.0000 </r>
       <r>    9.0370    0.0000 </r>
       <r>    9.0403    0.0000 </r>
       <r>    9.0660    0.0000 </r>
       <r>    9.1363    0.0000 </r>
       <r>    9.1465    0.0000 </r>
       <r>    9.1942    0.0000 </r>
       <r>    9.2275    0.0000 </r>
       <r>    9.4745    0.0000 </r>
       <r>    9.5128    0.0000 </r>
       <r>    9.5493    0.0000 </r>
       <r>    9.6873    0.0000 </r>
      </set>
      <set comment="kpoint 2">
       <r>  -39.8678    1.0000 </r>
       <r>  -39.8603    1.0000 </r>
       <r>  -39.8250    1.0000 </r>
       <r>  -39.8249    1.0000 </r>
       <r>  -39.8158    1.0000 </r>
       <r>  -39.8155    1.0000 </r>
       <r>  -39.7894    1.0000 </r>
       <r>  -39.7793    1.0000 </r>
       <r>  -18.6858    1.0000 </r>
       <r>  -18.6837    1.0000 </r>
       <r>  -18.6836    1.0000 </r>
       <r>  -18.6821    1.0000 </r>
       <r>  -18.6767    1.0000 </r>
       <r>  -18.6749    1.0000 </r>
       <r>  -18.6744    1.0000 </r>
       <r>  -18.6730    1.0000 </r>
       <r>  -18.6670    1.0000 </r>
       <r>  -18.6661    1.0000 </r>
       <r>  -18.6650    1.0000 </r>
       <r>  -18.6646    1.0000 </r>
       <r>  -18.6635    1.0000 </r>
       <r>  -18.6628    1.0000 </r>
       <r>  -18.6623    1.0000 </r>
       <r>  -18.6620    1.0000 </r>
       <r>  -18.6618    1.0000 </r>
       <r>  -18.6613    1.0000 </r>
       <r>  -18.6608    1.0000 </r>
       <r>  -18.6600    1.0000 </r>
       <r>  -18.6568    1.0000 </r>
       <r>  -18.6564    1.0000 </r>
       <r>  -18.6561    1.0000 </r>
       <r>  -18.6556    1.0000 </r>
       <r>  -18.6549    1.0000 </r>
       <r>  -18.6545    1.0000 </r>
       <r>  -18.6533    1.0000 </r>
       <r>  -18.6526    1.0000 </r>
       <r>  -18.6432    1.0000 </r>
       <r>  -18.6415    1.0000 </r>
       <r>  -18.6402    1.0000 </r>
       <r>  -18.6390    1.0000 </r>
       <r>  -18.6387    1.0000 </r>
       <r>  -18.6374    1.0000 </r>
       <r>  -18.6372    1.0000 </r>
       <r>  -18.6346    1.0000 </r>
       <r>  -18.6340    1.0000 </r>
       <r>  -18.6326    1.0000 </r>
       <r>  -18.6322    1.0000 </r>
       <r>  -18.6308    1.0000 </r>
       <r>  -18.6305    1.0000 </r>
       <r>  -18.6299    1.0000 </r>
       <r>  -18.6293    1.0000 </r>
       <r>  -18.6272    1.0000 </r>
       <r>  -18.6268    1.0000 </r>
       <r>  -18.6262    1.0000 </r>
       <r>  -18.6213    1.0000 </r>
       <r>  -18.6196    1.0000 </r>
       <r>  -18.5115    1.0000 </r>
       <r>  -18.5111    1.0000 </r>
       <r>  -18.5106    1.0000 </r>
       <r>  -18.5096    1.0000 </r>
       <r>  -18.5079    1.0000 </r>
       <r>  -18.5072    1.0000 </r>
       <r>  -18.5069    1.0000 </r>
       <r>  -18.5058    1.0000 </r>
       <r>  -18.5055    1.0000 </r>
       <r>  -18.5052    1.0000 </r>
       <r>  -18.5045    1.0000 </r>
       <r>  -18.5040    1.0000 </r>
       <r>  -18.5018    1.0000 </r>
       <r>  -18.4994    1.0000 </r>
       <r>  -18.4989    1.0000 </r>
       <r>  -18.4971    1.0000 </r>
       <r>  -18.4963    1.0000 </r>
       <r>  -18.4961    1.0000 </r>
       <r>  -18.4950    1.0000 </r>
       <r>  -18.4946    1.0000 </r>
       <r>  -18.4926    1.0000 </r>
       <r>  -18.4920    1.0000 </r>
       <r>  -18.4912    1.0000 </r>
       <r>  -18.4908    1.0000 </r>
       <r>  -18.4896    1.0000 </r>
       <r>  -18.4868    1.0000 </r>
       <r>  -18.4865    1.0000 </r>
       <r>  -18.4860    1.0000 </r>
       <r>  -18.4858    1.0000 </r>
       <r>  -18.4836    1.0000 </r>
       <r>  -18.4701    1.0000 </r>
       <r>  -18.4687    1.0000 </r>
       <r>  -12.9349    1.0000 </r>
       <r>  -12.9104    1.0000 </r>
       <r>  -12.8138    1.0000 </r>
       <r>  -12.7978    1.0000 </r>
       <r>  -12.7541    1.0000 </r>
       <r>  -12.7516    1.0000 </r>
       <r>  -12.7048    1.0000 </r>
       <r>  -12.6991    1.0000 </r>
       <r>  -12.6761    1.0000 </r>
       <r>  -12.6747    1.0000 </r>
       <r>  -12.6546    1.0000 </r>
       <r>  -12.6541    1.0000 </r>
       <r>  -12.6480    1.0000 </r>
       <r>  -12.6474    1.0000 </r>
       <r>  -12.6294    1.0000 </r>
       <r>  -12.6242    1.0000 </r>
       <r>   -9.1184    1.0000 </r>
       <r>   -9.1142    1.0000 </r>
       <r>   -8.8401    1.0000 </r>
       <r>   -8.8366    1.0000 </r>
       <r>   -8.3407    1.0000 </r>
       <r>   -8.3404    1.0000 </r>
       <r>   -8.3300    1.0000 </r>
       <r>   -8.3299    1.0000 </r>
       <r>   -8.1523    1.0000 </r>
       <r>   -8.1518    1.0000 </r>
       <r>   -8.1423    1.0000 </r>
       <r>   -8.1422    1.0000 </r>
       <r>   -7.7127    1.0000 </r>
       <r>   -7.7105    1.0000 </r>
       <r>   -7.5999    1.0000 </r>
       <r>   -7.5978    1.0000 </r>
       <r>   -5.9050    1.0000 </r>
       <r>   -5.9029    1.0000 </r>
       <r>   -5.9024    1.0000 </r>
       <r>   -5.9004    1.0000 </r>
       <r>   -5.7590    1.0000 </r>
       <r>   -5.7571    1.0000 </r>
       <r>   -5.7493    1.0000 </r>
       <r>   -5.7476    1.0000 </r>
       <r>   -5.6877    1.0000 </r>
       <r>   -5.6844    1.0000 </r>
       <r>   -5.5922    1.0000 </r>
       <r>   -5.5887    1.0000 </r>
       <r>   -4.4525    1.0000 </r>
       <r>   -4.4492    1.0000 </r>
       <r>   -4.2886    1.0000 </r>
       <r>   -4.2810    1.0000 </r>
       <r>   -1.1598    1.0000 </r>
       <r>   -1.1272    1.0000 </r>
       <r>   -0.8170    1.0000 </r>
       <r>   -0.8108    1.0000 </r>
       <r>   -0.3273    1.0000 </r>
       <r>   -0.2891    1.0000 </r>
       <r>    0.0663    1.0000 </r>
       <r>    0.1070    1.0000 </r>
       <r>    0.1397    1.0000 </r>
       <r>    0.1602    1.0000 </r>
       <r>    0.2403    1.0000 </r>
       <r>    0.2727    1.0000 </r>
       <r>    0.2906    1.0000 </r>
       <r>    0.3116    1.0000 </r>
       <r>    0.3133    1.0000 </r>
       <r>    0.3323    1.0000 </r>
       <r>    0.5311    1.0000 </r>
       <r>    0.5375    1.0000 </r>
       <r>    0.5692    1.0000 </r>
       <r>    0.5828    1.0000 </r>
       <r>    0.6022    1.0000 </r>
       <r>    0.6090    1.0000 </r>
       <r>    0.6775    1.0000 </r>
       <r>    0.6929    1.0000 </r>
       <r>    0.7482    1.0000 </r>
       <r>    0.7972    1.0000 </r>
       <r>    1.0051    1.0000 </r>
       <r>    1.0451    1.0000 </r>
       <r>    1.0661    1.0000 </r>
       <r>    1.0707    1.0000 </r>
       <r>    1.1371    1.0000 </r>
       <r>    1.1860    1.0000 </r>
       <r>    1.2054    1.0000 </r>
       <r>    1.2158    1.0000 </r>
       <r>    1.2200    1.0000 </r>
       <r>    1.2370    1.0000 </r>
       <r>    1.2404    1.0000 </r>
       <r>    1.3268    1.0000 </r>
       <r>    1.3383    1.0000 </r>
       <r>    1.3833    1.0000 </r>
       <r>    1.4548    1.0000 </r>
       <r>    1.4936    1.0000 </r>
       <r>    1.5939    1.0000 </r>
       <r>    1.6349    1.0000 </r>
       <r>    1.6798    1.0000 </r>
       <r>    1.7592    1.0000 </r>
       <r>    1.7647    1.0000 </r>
       <r>    1.7976    1.0000 </r>
       <r>    1.8140    1.0000 </r>
       <r>    1.8217    1.0000 </r>
       <r>    1.8256    1.0000 </r>
       <r>    1.8841    1.0000 </r>
       <r>    1.9209    1.0000 </r>
       <r>    1.9561    1.0000 </r>
       <r>    2.0216    1.0000 </r>
       <r>    2.0552    1.0000 </r>
       <r>    2.0772    1.0000 </r>
       <r>    2.0865    1.0000 </r>
       <r>    2.1661    1.0000 </r>
       <r>    2.2081    1.0000 </r>
       <r>    2.2815    1.0000 </r>
       <r>    2.3081    1.0000 </r>
       <r>    2.3516    1.0000 </r>
       <r>    2.4234    1.0000 </r>
       <r>    2.4686    1.0000 </r>
       <r>    2.5361    1.0000 </r>
       <r>    2.5398    1.0000 </r>
       <r>    2.5670    1.0000 </r>
       <r>    2.6611    1.0000 </r>
       <r>    2.6854    1.0000 </r>
       <r>    2.6885    1.0000 </r>
       <r>    2.7376    1.0000 </r>
       <r>    2.7856    1.0000 </r>
       <r>    2.7893    1.0000 </r>
       <r>    2.7921    1.0000 </r>
       <r>    2.8293    1.0000 </r>
       <r>    2.8792    1.0000 </r>
       <r>    2.9027    1.0000 </r>
       <r>    2.9181    1.0000 </r>
       <r>    2.9313    1.0000 </r>
       <r>    2.9515    1.0000 </r>
       <r>    2.9783    1.0000 </r>
       <r>    2.9919    1.0000 </r>
       <r>    3.0224    1.0000 </r>
       <r>    3.0952    1.0000 </r>
       <r>    3.1360    1.0000 </r>
       <r>    3.2003    1.0000 </r>
       <r>    3.2278    1.0000 </r>
       <r>    3.4523    1.0000 </r>
       <r>    3.4647    1.0000 </r>
       <r>    3.4934    1.0000 </r>
       <r>    3.5022    1.0000 </r>
       <r>    3.5256    1.0000 </r>
       <r>    3.5277    1.0000 </r>
       <r>    3.5795    1.0000 </r>
       <r>    3.5811    1.0000 </r>
       <r>    5.6624    0.0000 </r>
       <r>    5.6642    0.0000 </r>
       <r>    5.6771    0.0000 </r>
       <r>    5.6830    0.0000 </r>
       <r>    5.7374    0.0000 </r>
       <r>    5.7417    0.0000 </r>
       <r>    5.7824    0.0000 </r>
       <r>    5.7830    0.0000 </r>
       <r>    7.2888    0.0000 </r>
       <r>    7.2933    0.0000 </r>
       <r>    7.3356    0.0000 </r>
       <r>    7.3641    0.0000 </r>
       <r>    7.4267    0.0000 </r>
       <r>    7.4346    0.0000 </r>
       <r>    7.4447    0.0000 </r>
       <r>    7.4568    0.0000 </r>
       <r>    7.4576    0.0000 </r>
       <r>    7.4838    0.0000 </r>
       <r>    7.5081    0.0000 </r>
       <r>    7.5275    0.0000 </r>
       <r>    7.8331    0.0000 </r>
       <r>    7.8351    0.0000 </r>
       <r>    7.8488    0.0000 </r>
       <r>    7.8525    0.0000 </r>
       <r>    7.8769    0.0000 </r>
       <r>    7.9065    0.0000 </r>
       <r>    7.9375    0.0000 </r>
       <r>    7.9497    0.0000 </r>
       <r>    7.9682    0.0000 </r>
       <r>    7.9754    0.0000 </r>
       <r>    7.9990    0.0000 </r>
       <r>    8.0656    0.0000 </r>
       <r>    8.2620    0.0000 </r>
       <r>    8.2741    0.0000 </r>
       <r>    8.2916    0.0000 </r>
       <r>    8.4653    0.0000 </r>
       <r>    8.6381    0.0000 </r>
       <r>    8.6734    0.0000 </r>
       <r>    8.7490    0.0000 </r>
       <r>    8.7567    0.0000 </r>
       <r>    8.7902    0.0000 </r>
       <r>    8.8098    0.0000 </r>
       <r>    8.8958    0.0000 </r>
       <r>    8.9026    0.0000 </r>
       <r>    9.1823    0.0000 </r>
       <r>    9.1906    0.0000 </r>
       <r>    9.4568    0.0000 </r>
       <r>    9.4705    0.0000 </r>
      </set>
      <set comment="kpoint 3">
       <r>  -39.8678    1.0000 </r>
       <r>  -39.8603    1.0000 </r>
       <r>  -39.8250    1.0000 </r>
       <r>  -39.8249    1.0000 </r>
       <r>  -39.8158    1.0000 </r>
       <r>  -39.8155    1.0000 </r>
       <r>  -39.7894    1.0000 </r>
       <r>  -39.7793    1.0000 </r>
       <r>  -18.6948    1.0000 </r>
       <r>  -18.6929    1.0000 </r>
       <r>  -18.6845    1.0000 </r>
       <r>  -18.6826    1.0000 </r>
       <r>  -18.6705    1.0000 </r>
       <r>  -18.6692    1.0000 </r>
       <r>  -18.6687    1.0000 </r>
       <r>  -18.6683    1.0000 </r>
       <r>  -18.6663    1.0000 </r>
       <r>  -18.6661    1.0000 </r>
       <r>  -18.6657    1.0000 </r>
       <r>  -18.6653    1.0000 </r>
       <r>  -18.6643    1.0000 </r>
       <r>  -18.6619    1.0000 </r>
       <r>  -18.6610    1.0000 </r>
       <r>  -18.6592    1.0000 </r>
       <r>  -18.6589    1.0000 </r>
       <r>  -18.6577    1.0000 </r>
       <r>  -18.6565    1.0000 </r>
       <r>  -18.6559    1.0000 </r>
       <r>  -18.6553    1.0000 </r>
       <r>  -18.6545    1.0000 </r>
       <r>  -18.6542    1.0000 </r>
       <r>  -18.6539    1.0000 </r>
       <r>  -18.6514    1.0000 </r>
       <r>  -18.6508    1.0000 </r>
       <r>  -18.6501    1.0000 </r>
       <r>  -18.6499    1.0000 </r>
       <r>  -18.6491    1.0000 </r>
       <r>  -18.6491    1.0000 </r>
       <r>  -18.6483    1.0000 </r>
       <r>  -18.6471    1.0000 </r>
       <r>  -18.6442    1.0000 </r>
       <r>  -18.6426    1.0000 </r>
       <r>  -18.6423    1.0000 </r>
       <r>  -18.6406    1.0000 </r>
       <r>  -18.6369    1.0000 </r>
       <r>  -18.6357    1.0000 </r>
       <r>  -18.6344    1.0000 </r>
       <r>  -18.6341    1.0000 </r>
       <r>  -18.6301    1.0000 </r>
       <r>  -18.6283    1.0000 </r>
       <r>  -18.6283    1.0000 </r>
       <r>  -18.6276    1.0000 </r>
       <r>  -18.6228    1.0000 </r>
       <r>  -18.6213    1.0000 </r>
       <r>  -18.6163    1.0000 </r>
       <r>  -18.6146    1.0000 </r>
       <r>  -18.5118    1.0000 </r>
       <r>  -18.5115    1.0000 </r>
       <r>  -18.5109    1.0000 </r>
       <r>  -18.5099    1.0000 </r>
       <r>  -18.5074    1.0000 </r>
       <r>  -18.5069    1.0000 </r>
       <r>  -18.5064    1.0000 </r>
       <r>  -18.5061    1.0000 </r>
       <r>  -18.5050    1.0000 </r>
       <r>  -18.5044    1.0000 </r>
       <r>  -18.5042    1.0000 </r>
       <r>  -18.5036    1.0000 </r>
       <r>  -18.5027    1.0000 </r>
       <r>  -18.4999    1.0000 </r>
       <r>  -18.4990    1.0000 </r>
       <r>  -18.4970    1.0000 </r>
       <r>  -18.4966    1.0000 </r>
       <r>  -18.4954    1.0000 </r>
       <r>  -18.4953    1.0000 </r>
       <r>  -18.4940    1.0000 </r>
       <r>  -18.4925    1.0000 </r>
       <r>  -18.4923    1.0000 </r>
       <r>  -18.4916    1.0000 </r>
       <r>  -18.4909    1.0000 </r>
       <r>  -18.4906    1.0000 </r>
       <r>  -18.4871    1.0000 </r>
       <r>  -18.4860    1.0000 </r>
       <r>  -18.4858    1.0000 </r>
       <r>  -18.4856    1.0000 </r>
       <r>  -18.4836    1.0000 </r>
       <r>  -18.4700    1.0000 </r>
       <r>  -18.4687    1.0000 </r>
       <r>  -12.9667    1.0000 </r>
       <r>  -12.8433    1.0000 </r>
       <r>  -12.8216    1.0000 </r>
       <r>  -12.8116    1.0000 </r>
       <r>  -12.7670    1.0000 </r>
       <r>  -12.7319    1.0000 </r>
       <r>  -12.7194    1.0000 </r>
       <r>  -12.6905    1.0000 </r>
       <r>  -12.6887    1.0000 </r>
       <r>  -12.6818    1.0000 </r>
       <r>  -12.6662    1.0000 </r>
       <r>  -12.6562    1.0000 </r>
       <r>  -12.6490    1.0000 </r>
       <r>  -12.6307    1.0000 </r>
       <r>  -12.6302    1.0000 </r>
       <r>  -12.6214    1.0000 </r>
       <r>   -9.3192    1.0000 </r>
       <r>   -9.0410    1.0000 </r>
       <r>   -8.5205    1.0000 </r>
       <r>   -8.5183    1.0000 </r>
       <r>   -8.5180    1.0000 </r>
       <r>   -8.5141    1.0000 </r>
       <r>   -8.2570    1.0000 </r>
       <r>   -8.2534    1.0000 </r>
       <r>   -8.2531    1.0000 </r>
       <r>   -8.2479    1.0000 </r>
       <r>   -8.0490    1.0000 </r>
       <r>   -8.0470    1.0000 </r>
       <r>   -8.0436    1.0000 </r>
       <r>   -8.0417    1.0000 </r>
       <r>   -7.3802    1.0000 </r>
       <r>   -7.3785    1.0000 </r>
       <r>   -6.3569    1.0000 </r>
       <r>   -6.3524    1.0000 </r>
       <r>   -6.3420    1.0000 </r>
       <r>   -6.3375    1.0000 </r>
       <r>   -5.4582    1.0000 </r>
       <r>   -5.4559    1.0000 </r>
       <r>   -5.4078    1.0000 </r>
       <r>   -5.4011    1.0000 </r>
       <r>   -5.3995    1.0000 </r>
       <r>   -5.3971    1.0000 </r>
       <r>   -5.1345    1.0000 </r>
       <r>   -5.1256    1.0000 </r>
       <r>   -5.1253    1.0000 </r>
       <r>   -5.1231    1.0000 </r>
       <r>   -3.9088    1.0000 </r>
       <r>   -3.5956    1.0000 </r>
       <r>   -1.3471    1.0000 </r>
       <r>   -1.2917    1.0000 </r>
       <r>   -1.1847    1.0000 </r>
       <r>   -1.0881    1.0000 </r>
       <r>   -0.4232    1.0000 </r>
       <r>   -0.4160    1.0000 </r>
       <r>   -0.4135    1.0000 </r>
       <r>   -0.3999    1.0000 </r>
       <r>   -0.3062    1.0000 </r>
       <r>   -0.2944    1.0000 </r>
       <r>   -0.2789    1.0000 </r>
       <r>   -0.2443    1.0000 </r>
       <r>    0.1150    1.0000 </r>
       <r>    0.1966    1.0000 </r>
       <r>    0.2570    1.0000 </r>
       <r>    0.2853    1.0000 </r>
       <r>    0.3189    1.0000 </r>
       <r>    0.3206    1.0000 </r>
       <r>    0.3445    1.0000 </r>
       <r>    0.3451    1.0000 </r>
       <r>    0.4919    1.0000 </r>
       <r>    0.6738    1.0000 </r>
       <r>    0.7538    1.0000 </r>
       <r>    0.7584    1.0000 </r>
       <r>    0.8008    1.0000 </r>
       <r>    0.8044    1.0000 </r>
       <r>    0.8108    1.0000 </r>
       <r>    0.8518    1.0000 </r>
       <r>    0.9139    1.0000 </r>
       <r>    1.1097    1.0000 </r>
       <r>    1.1596    1.0000 </r>
       <r>    1.2173    1.0000 </r>
       <r>    1.2830    1.0000 </r>
       <r>    1.4414    1.0000 </r>
       <r>    1.4892    1.0000 </r>
       <r>    1.5574    1.0000 </r>
       <r>    1.5898    1.0000 </r>
       <r>    1.6050    1.0000 </r>
       <r>    1.6241    1.0000 </r>
       <r>    1.6388    1.0000 </r>
       <r>    1.6994    1.0000 </r>
       <r>    1.7172    1.0000 </r>
       <r>    1.7263    1.0000 </r>
       <r>    1.7858    1.0000 </r>
       <r>    1.8142    1.0000 </r>
       <r>    1.8365    1.0000 </r>
       <r>    1.8372    1.0000 </r>
       <r>    1.9051    1.0000 </r>
       <r>    1.9209    1.0000 </r>
       <r>    1.9609    1.0000 </r>
       <r>    1.9719    1.0000 </r>
       <r>    2.0217    1.0000 </r>
       <r>    2.0548    1.0000 </r>
       <r>    2.1097    1.0000 </r>
       <r>    2.1404    1.0000 </r>
       <r>    2.2668    1.0000 </r>
       <r>    2.3703    1.0000 </r>
       <r>    2.5101    1.0000 </r>
       <r>    2.5265    1.0000 </r>
       <r>    2.5347    1.0000 </r>
       <r>    2.5573    1.0000 </r>
       <r>    2.5589    1.0000 </r>
       <r>    2.5721    1.0000 </r>
       <r>    2.5740    1.0000 </r>
       <r>    2.5815    1.0000 </r>
       <r>    2.5820    1.0000 </r>
       <r>    2.6298    1.0000 </r>
       <r>    2.7084    1.0000 </r>
       <r>    2.7209    1.0000 </r>
       <r>    2.7362    1.0000 </r>
       <r>    2.7826    1.0000 </r>
       <r>    2.8274    1.0000 </r>
       <r>    2.8367    1.0000 </r>
       <r>    2.8418    1.0000 </r>
       <r>    2.8656    1.0000 </r>
       <r>    2.8982    1.0000 </r>
       <r>    2.8990    1.0000 </r>
       <r>    2.9024    1.0000 </r>
       <r>    2.9048    1.0000 </r>
       <r>    2.9505    1.0000 </r>
       <r>    2.9791    1.0000 </r>
       <r>    2.9984    1.0000 </r>
       <r>    3.0008    1.0000 </r>
       <r>    3.0763    1.0000 </r>
       <r>    3.3241    1.0000 </r>
       <r>    3.3456    1.0000 </r>
       <r>    3.3465    1.0000 </r>
       <r>    3.3722    1.0000 </r>
       <r>    3.4195    1.0000 </r>
       <r>    3.4301    1.0000 </r>
       <r>    3.4312    1.0000 </r>
       <r>    3.4498    1.0000 </r>
       <r>    4.2153    1.0000 </r>
       <r>    4.2213    1.0000 </r>
       <r>    4.2382    1.0000 </r>
       <r>    4.2435    1.0000 </r>
       <r>    5.1278    0.0000 </r>
       <r>    5.1302    0.0000 </r>
       <r>    5.1967    0.0000 </r>
       <r>    5.1991    0.0000 </r>
       <r>    5.7606    0.0000 </r>
       <r>    5.7678    0.0000 </r>
       <r>    5.8067    0.0000 </r>
       <r>    5.8147    0.0000 </r>
       <r>    6.1491    0.0000 </r>
       <r>    6.1531    0.0000 </r>
       <r>    6.1537    0.0000 </r>
       <r>    6.1593    0.0000 </r>
       <r>    6.2344    0.0000 </r>
       <r>    6.2385    0.0000 </r>
       <r>    6.2388    0.0000 </r>
       <r>    6.2419    0.0000 </r>
       <r>    6.8869    0.0000 </r>
       <r>    6.9405    0.0000 </r>
       <r>    6.9827    0.0000 </r>
       <r>    7.0863    0.0000 </r>
       <r>    7.2756    0.0000 </r>
       <r>    7.3807    0.0000 </r>
       <r>    7.3924    0.0000 </r>
       <r>    7.4363    0.0000 </r>
       <r>    7.5576    0.0000 </r>
       <r>    7.8908    0.0000 </r>
       <r>    7.9254    0.0000 </r>
       <r>    7.9270    0.0000 </r>
       <r>    7.9573    0.0000 </r>
       <r>    8.2538    0.0000 </r>
       <r>    8.2550    0.0000 </r>
       <r>    8.4616    0.0000 </r>
       <r>    8.6969    0.0000 </r>
       <r>    8.7824    0.0000 </r>
       <r>    8.9230    0.0000 </r>
       <r>    8.9828    0.0000 </r>
       <r>    9.0120    0.0000 </r>
       <r>    9.0558    0.0000 </r>
       <r>    9.0603    0.0000 </r>
       <r>    9.0799    0.0000 </r>
       <r>    9.0859    0.0000 </r>
       <r>    9.0953    0.0000 </r>
       <r>    9.1366    0.0000 </r>
       <r>    9.1871    0.0000 </r>
       <r>    9.4521    0.0000 </r>
       <r>    9.4632    0.0000 </r>
       <r>    9.6912    0.0000 </r>
       <r>    9.8373    0.0000 </r>
      </set>
      <set comment="kpoint 4">
       <r>  -39.8678    1.0000 </r>
       <r>  -39.8603    1.0000 </r>
       <r>  -39.8250    1.0000 </r>
       <r>  -39.8249    1.0000 </r>
       <r>  -39.8158    1.0000 </r>
       <r>  -39.8155    1.0000 </r>
       <r>  -39.7894    1.0000 </r>
       <r>  -39.7793    1.0000 </r>
       <r>  -18.6857    1.0000 </r>
       <r>  -18.6837    1.0000 </r>
       <r>  -18.6836    1.0000 </r>
       <r>  -18.6821    1.0000 </r>
       <r>  -18.6767    1.0000 </r>
       <r>  -18.6749    1.0000 </r>
       <r>  -18.6745    1.0000 </r>
       <r>  -18.6730    1.0000 </r>
       <r>  -18.6671    1.0000 </r>
       <r>  -18.6663    1.0000 </r>
       <r>  -18.6649    1.0000 </r>
       <r>  -18.6646    1.0000 </r>
       <r>  -18.6635    1.0000 </r>
       <r>  -18.6628    1.0000 </r>
       <r>  -18.6625    1.0000 </r>
       <r>  -18.6621    1.0000 </r>
       <r>  -18.6616    1.0000 </r>
       <r>  -18.6615    1.0000 </r>
       <r>  -18.6606    1.0000 </r>
       <r>  -18.6600    1.0000 </r>
       <r>  -18.6575    1.0000 </r>
       <r>  -18.6563    1.0000 </r>
       <r>  -18.6562    1.0000 </r>
       <r>  -18.6550    1.0000 </r>
       <r>  -18.6547    1.0000 </r>
       <r>  -18.6545    1.0000 </r>
       <r>  -18.6532    1.0000 </r>
       <r>  -18.6524    1.0000 </r>
       <r>  -18.6432    1.0000 </r>
       <r>  -18.6415    1.0000 </r>
       <r>  -18.6402    1.0000 </r>
       <r>  -18.6390    1.0000 </r>
       <r>  -18.6387    1.0000 </r>
       <r>  -18.6375    1.0000 </r>
       <r>  -18.6372    1.0000 </r>
       <r>  -18.6347    1.0000 </r>
       <r>  -18.6340    1.0000 </r>
       <r>  -18.6327    1.0000 </r>
       <r>  -18.6322    1.0000 </r>
       <r>  -18.6307    1.0000 </r>
       <r>  -18.6306    1.0000 </r>
       <r>  -18.6299    1.0000 </r>
       <r>  -18.6293    1.0000 </r>
       <r>  -18.6272    1.0000 </r>
       <r>  -18.6268    1.0000 </r>
       <r>  -18.6262    1.0000 </r>
       <r>  -18.6213    1.0000 </r>
       <r>  -18.6196    1.0000 </r>
       <r>  -18.5115    1.0000 </r>
       <r>  -18.5111    1.0000 </r>
       <r>  -18.5105    1.0000 </r>
       <r>  -18.5096    1.0000 </r>
       <r>  -18.5079    1.0000 </r>
       <r>  -18.5071    1.0000 </r>
       <r>  -18.5068    1.0000 </r>
       <r>  -18.5058    1.0000 </r>
       <r>  -18.5055    1.0000 </r>
       <r>  -18.5052    1.0000 </r>
       <r>  -18.5045    1.0000 </r>
       <r>  -18.5040    1.0000 </r>
       <r>  -18.5018    1.0000 </r>
       <r>  -18.4994    1.0000 </r>
       <r>  -18.4990    1.0000 </r>
       <r>  -18.4971    1.0000 </r>
       <r>  -18.4963    1.0000 </r>
       <r>  -18.4961    1.0000 </r>
       <r>  -18.4950    1.0000 </r>
       <r>  -18.4946    1.0000 </r>
       <r>  -18.4926    1.0000 </r>
       <r>  -18.4920    1.0000 </r>
       <r>  -18.4912    1.0000 </r>
[...]
       <r>    8.8496    0.0000 </r>
       <r>    8.8542    0.0000 </r>
       <r>    8.8584    0.0000 </r>
       <r>    8.8751    0.0000 </r>
       <r>    8.8853    0.0000 </r>
       <r>    8.8889    0.0000 </r>
       <r>    8.8943    0.0000 </r>
      </set>
     </set>
    </set>
   </array>
  </eigenvalues>
  <separator name="orbital magnetization" >
   <v name="MAGDIPOLOUT">      0.00000000      0.00000000      0.00000000</v>
  </separator>
  <dos>
   <i name="efermi">      4.34901198 </i>
   <total>
    <array>
     <dimension dim="1">gridpoints</dimension>
     <dimension dim="2">spin</dimension>
     <field>energy</field>
     <field>total</field>
     <field>integrated</field>
     <set>
      <set comment="spin 1">
       <r>   -42.3530     0.0000     0.0000 </r>
       <r>   -42.1708     0.0000     0.0000 </r>
       <r>   -41.9885     0.0000     0.0000 </r>
       <r>   -41.8063     0.0000     0.0000 </r>
       <r>   -41.6240     0.0000     0.0000 </r>
       <r>   -41.4418     0.0000     0.0000 </r>
       <r>   -41.2595     0.0000     0.0000 </r>
       <r>   -41.0773     0.0000     0.0000 </r>
       <r>   -40.8950     0.0000     0.0000 </r>
       <r>   -40.7128     0.0000     0.0000 </r>
       <r>   -40.5305     0.0000     0.0000 </r>
       <r>   -40.3483     0.0000     0.0000 </r>
       <r>   -40.1660     0.0000     0.0000 </r>
       <r>   -39.9838     0.0000     0.0000 </r>
       <r>   -39.8015     0.0000    12.0000 </r>
       <r>   -39.6193     0.0000    16.0000 </r>
       <r>   -39.4370     0.0000    16.0000 </r>
       <r>   -39.2548     0.0000    16.0000 </r>
       <r>   -39.0725     0.0000    16.0000 </r>
       <r>   -38.8903     0.0000    16.0000 </r>
       <r>   -38.7080     0.0000    16.0000 </r>
       <r>   -38.5258     0.0000    16.0000 </r>
       <r>   -38.3435     0.0000    16.0000 </r>
       <r>   -38.1612     0.0000    16.0000 </r>
       <r>   -37.9790     0.0000    16.0000 </r>
       <r>   -37.7967     0.0000    16.0000 </r>
       <r>   -37.6145     0.0000    16.0000 </r>
       <r>   -37.4322     0.0000    16.0000 </r>
       <r>   -37.2500     0.0000    16.0000 </r>
       <r>   -37.0677     0.0000    16.0000 </r>
       <r>   -36.8855     0.0000    16.0000 </r>
       <r>   -36.7032     0.0000    16.0000 </r>
       <r>   -36.5210     0.0000    16.0000 </r>
       <r>   -36.3387     0.0000    16.0000 </r>
       <r>   -36.1565     0.0000    16.0000 </r>
       <r>   -35.9742     0.0000    16.0000 </r>
       <r>   -35.7920     0.0000    16.0000 </r>
       <r>   -35.6097     0.0000    16.0000 </r>
       <r>   -35.4275     0.0000    16.0000 </r>
       <r>   -35.2452     0.0000    16.0000 </r>
       <r>   -35.0630     0.0000    16.0000 </r>
       <r>   -34.8807     0.0000    16.0000 </r>
       <r>   -34.6985     0.0000    16.0000 </r>
       <r>   -34.5162     0.0000    16.0000 </r>
       <r>   -34.3340     0.0000    16.0000 </r>
       <r>   -34.1517     0.0000    16.0000 </r>
       <r>   -33.9695     0.0000    16.0000 </r>
       <r>   -33.7872     0.0000    16.0000 </r>
       <r>   -33.6050     0.0000    16.0000 </r>
       <r>   -33.4227     0.0000    16.0000 </r>
       <r>   -33.2404     0.0000    16.0000 </r>
       <r>   -33.0582     0.0000    16.0000 </r>
       <r>   -32.8759     0.0000    16.0000 </r>
       <r>   -32.6937     0.0000    16.0000 </r>
       <r>   -32.5114     0.0000    16.0000 </r>
       <r>   -32.3292     0.0000    16.0000 </r>
       <r>   -32.1469     0.0000    16.0000 </r>
       <r>   -31.9647     0.0000    16.0000 </r>
       <r>   -31.7824     0.0000    16.0000 </r>
       <r>   -31.6002     0.0000    16.0000 </r>
       <r>   -31.4179     0.0000    16.0000 </r>
       <r>   -31.2357     0.0000    16.0000 </r>
       <r>   -31.0534     0.0000    16.0000 </r>
       <r>   -30.8712     0.0000    16.0000 </r>
       <r>   -30.6889     0.0000    16.0000 </r>
       <r>   -30.5067     0.0000    16.0000 </r>
       <r>   -30.3244     0.0000    16.0000 </r>
       <r>   -30.1422     0.0000    16.0000 </r>
       <r>   -29.9599     0.0000    16.0000 </r>
       <r>   -29.7777     0.0000    16.0000 </r>
       <r>   -29.5954     0.0000    16.0000 </r>
       <r>   -29.4132     0.0000    16.0000 </r>
       <r>   -29.2309     0.0000    16.0000 </r>
       <r>   -29.0487     0.0000    16.0000 </r>
       <r>   -28.8664     0.0000    16.0000 </r>
       <r>   -28.6841     0.0000    16.0000 </r>
       <r>   -28.5019     0.0000    16.0000 </r>
       <r>   -28.3196     0.0000    16.0000 </r>
       <r>   -28.1374     0.0000    16.0000 </r>
       <r>   -27.9551     0.0000    16.0000 </r>
       <r>   -27.7729     0.0000    16.0000 </r>
       <r>   -27.5906     0.0000    16.0000 </r>
       <r>   -27.4084     0.0000    16.0000 </r>
       <r>   -27.2261     0.0000    16.0000 </r>
       <r>   -27.0439     0.0000    16.0000 </r>
       <r>   -26.8616     0.0000    16.0000 </r>
       <r>   -26.6794     0.0000    16.0000 </r>
       <r>   -26.4971     0.0000    16.0000 </r>
       <r>   -26.3149     0.0000    16.0000 </r>
       <r>   -26.1326     0.0000    16.0000 </r>
       <r>   -25.9504     0.0000    16.0000 </r>
       <r>   -25.7681     0.0000    16.0000 </r>
       <r>   -25.5859     0.0000    16.0000 </r>
       <r>   -25.4036     0.0000    16.0000 </r>
       <r>   -25.2214     0.0000    16.0000 </r>
       <r>   -25.0391     0.0000    16.0000 </r>
       <r>   -24.8569     0.0000    16.0000 </r>
       <r>   -24.6746     0.0000    16.0000 </r>
       <r>   -24.4924     0.0000    16.0000 </r>
       <r>   -24.3101     0.0000    16.0000 </r>
       <r>   -24.1279     0.0000    16.0000 </r>
       <r>   -23.9456     0.0000    16.0000 </r>
       <r>   -23.7633     0.0000    16.0000 </r>
       <r>   -23.5811     0.0000    16.0000 </r>
       <r>   -23.3988     0.0000    16.0000 </r>
       <r>   -23.2166     0.0000    16.0000 </r>
       <r>   -23.0343     0.0000    16.0000 </r>
       <r>   -22.8521     0.0000    16.0000 </r>
       <r>   -22.6698     0.0000    16.0000 </r>
       <r>   -22.4876     0.0000    16.0000 </r>
       <r>   -22.3053     0.0000    16.0000 </r>
       <r>   -22.1231     0.0000    16.0000 </r>
       <r>   -21.9408     0.0000    16.0000 </r>
       <r>   -21.7586     0.0000    16.0000 </r>
       <r>   -21.5763     0.0000    16.0000 </r>
       <r>   -21.3941     0.0000    16.0000 </r>
       <r>   -21.2118     0.0000    16.0000 </r>
       <r>   -21.0296     0.0000    16.0000 </r>
       <r>   -20.8473     0.0000    16.0000 </r>
       <r>   -20.6651     0.0000    16.0000 </r>
       <r>   -20.4828     0.0000    16.0000 </r>
       <r>   -20.3006     0.0000    16.0000 </r>
       <r>   -20.1183     0.0000    16.0000 </r>
       <r>   -19.9361     0.0000    16.0000 </r>
       <r>   -19.7538     0.0000    16.0000 </r>
       <r>   -19.5716     0.0000    16.0000 </r>
       <r>   -19.3893     0.0000    16.0000 </r>
       <r>   -19.2070     0.0000    16.0000 </r>
       <r>   -19.0248     0.0000    16.0000 </r>
       <r>   -18.8425     0.0000    16.0000 </r>
       <r>   -18.6603  1313.9900    48.8222 </r>
       <r>   -18.4780     0.0000   172.0000 </r>
       <r>   -18.2958     0.0000   176.0000 </r>
       <r>   -18.1135     0.0000   176.0000 </r>
       <r>   -17.9313     0.0000   176.0000 </r>
       <r>   -17.7490     0.0000   176.0000 </r>
       <r>   -17.5668     0.0000   176.0000 </r>
       <r>   -17.3845     0.0000   176.0000 </r>
       <r>   -17.2023     0.0000   176.0000 </r>
       <r>   -17.0200     0.0000   176.0000 </r>
       <r>   -16.8378     0.0000   176.0000 </r>
       <r>   -16.6555     0.0000   176.0000 </r>
       <r>   -16.4733     0.0000   176.0000 </r>
       <r>   -16.2910     0.0000   176.0000 </r>
       <r>   -16.1088     0.0000   176.0000 </r>
       <r>   -15.9265     0.0000   176.0000 </r>
       <r>   -15.7443     0.0000   176.0000 </r>
       <r>   -15.5620     0.0000   176.0000 </r>
       <r>   -15.3798     0.0000   176.0000 </r>
       <r>   -15.1975     0.0000   176.0000 </r>
       <r>   -15.0153     0.0000   176.0000 </r>
       <r>   -14.8330     0.0000   176.0000 </r>
       <r>   -14.6508     0.0000   176.0000 </r>
       <r>   -14.4685     0.0000   176.0000 </r>
       <r>   -14.2862     0.0000   176.0000 </r>
       <r>   -14.1040     0.0000   176.0000 </r>
       <r>   -13.9217     0.0000   176.0000 </r>
       <r>   -13.7395     0.0000   176.0000 </r>
       <r>   -13.5572     0.0000   176.0000 </r>
       <r>   -13.3750     0.0000   176.0000 </r>
       <r>   -13.1927     0.0000   176.0000 </r>
       <r>   -13.0105     0.0000   176.0000 </r>
       <r>   -12.8282    60.7809   181.3138 </r>
       <r>   -12.6460    56.2741   202.0461 </r>
       <r>   -12.4637     0.0000   208.0000 </r>
       <r>   -12.2815     0.0000   208.0000 </r>
       <r>   -12.0992     0.0000   208.0000 </r>
       <r>   -11.9170     0.0000   208.0000 </r>
       <r>   -11.7347     0.0000   208.0000 </r>
       <r>   -11.5525     0.0000   208.0000 </r>
       <r>   -11.3702     0.0000   208.0000 </r>
       <r>   -11.1880     0.0000   208.0000 </r>
       <r>   -11.0057     0.0000   208.0000 </r>
       <r>   -10.8235     0.0000   208.0000 </r>
       <r>   -10.6412     0.0000   208.0000 </r>
       <r>   -10.4590     0.0000   208.0000 </r>
       <r>   -10.2767     0.0000   208.0000 </r>
       <r>   -10.0945     0.0000   208.0000 </r>
       <r>    -9.9122     0.0000   208.0000 </r>
       <r>    -9.7299     0.0000   208.0000 </r>
       <r>    -9.5477     0.0000   208.0000 </r>
       <r>    -9.3654     0.0000   208.0000 </r>
       <r>    -9.1832     6.6834   208.4729 </r>
       <r>    -9.0009    13.3180   211.4319 </r>
       <r>    -8.8187    15.2129   213.6601 </r>
       <r>    -8.6364     7.9331   215.6206 </r>
       <r>    -8.4542    28.3023   219.0884 </r>
       <r>    -8.2719     3.3727   223.9808 </r>
       <r>    -8.0897    32.6915   227.1170 </r>
       <r>    -7.9074    21.1412   231.4558 </r>
       <r>    -7.7252    74.9985   235.5346 </r>
       <r>    -7.5429    15.6664   238.7080 </r>
       <r>    -7.3607     0.0000   240.0000 </r>
       <r>    -7.1784     0.0000   240.0000 </r>
       <r>    -6.9962     0.0000   240.0000 </r>
       <r>    -6.8139     0.0000   240.0000 </r>
       <r>    -6.6317     0.0000   240.0000 </r>
       <r>    -6.4494     0.0000   240.0000 </r>
       <r>    -6.2672     6.1826   240.2644 </r>
       <r>    -6.0849    19.4865   242.6032 </r>
       <r>    -5.9027    11.3651   248.3464 </r>
       <r>    -5.7204    26.7524   252.0310 </r>
       <r>    -5.5382    27.8379   257.1294 </r>
       <r>    -5.3559    16.5007   260.9126 </r>
       <r>    -5.1737    10.9717   263.4321 </r>
       <r>    -4.9914     3.9121   264.3180 </r>
       <r>    -4.8091     7.9036   265.4268 </r>
       <r>    -4.6269    10.5883   267.1074 </r>
       <r>    -4.4446     4.7015   268.9466 </r>
       <r>    -4.2624     6.9559   269.9994 </r>
       <r>    -4.0801     5.0441   271.1895 </r>
       <r>    -3.8979     1.7604   271.8071 </r>
       <r>    -3.7156     0.4201   271.9822 </r>
       <r>    -3.5334     0.0000   272.0000 </r>
       <r>    -3.3511     0.0000   272.0000 </r>
       <r>    -3.1689     0.0000   272.0000 </r>
       <r>    -2.9866     0.0000   272.0000 </r>
       <r>    -2.8044     0.0000   272.0000 </r>
       <r>    -2.6221     0.0000   272.0000 </r>
       <r>    -2.4399     0.0000   272.0000 </r>
       <r>    -2.2576     0.0000   272.0000 </r>
       <r>    -2.0754     0.0000   272.0000 </r>
       <r>    -1.8931     0.0000   272.0000 </r>
       <r>    -1.7109     0.0000   272.0000 </r>
       <r>    -1.5286     0.0000   272.0000 </r>
       <r>    -1.3464     0.7962   272.0198 </r>
       <r>    -1.1641     9.3698   272.8755 </r>
       <r>    -0.9819    11.3208   274.5633 </r>
       <r>    -0.7996    10.5424   276.9506 </r>
       <r>    -0.6174     7.1671   278.5645 </r>
       <r>    -0.4351     7.1995   279.6456 </r>
       <r>    -0.2528    24.3087   282.6047 </r>
       <r>    -0.0706    32.7231   288.0556 </r>
       <r>     0.1117    33.0483   294.1411 </r>
       <r>     0.2939    43.0418   300.5891 </r>
       <r>     0.4762    35.5003   308.8815 </r>
       <r>     0.6584    43.2676   316.1951 </r>
       <r>     0.8407    31.9212   321.6981 </r>
       <r>     1.0229    45.3897   328.5461 </r>
       <r>     1.2052    45.8004   337.7730 </r>
       <r>     1.3874    58.4976   346.8553 </r>
       <r>     1.5697    37.6111   355.1546 </r>
       <r>     1.7519    75.0405   363.9148 </r>
       <r>     1.9342    52.0917   375.7989 </r>
       <r>     2.1164    39.8062   383.7061 </r>
       <r>     2.2987    35.9949   389.8261 </r>
       <r>     2.4809    61.9057   398.5843 </r>
       <r>     2.6632    61.1900   410.1392 </r>
       <r>     2.8454    64.1815   422.6924 </r>
       <r>     3.0277    66.3467   439.2323 </r>
       <r>     3.2099    29.6329   447.6106 </r>
       <r>     3.3922    34.4910   452.1599 </r>
       <r>     3.5744    16.8273   459.4132 </r>
       <r>     3.7567    10.2985   461.6822 </r>
       <r>     3.9389     6.1238   463.1788 </r>
       <r>     4.1212     1.9433   463.9140 </r>
       <r>     4.3034     0.0000   464.0000 </r>
       <r>     4.4857     0.0000   464.0000 </r>
       <r>     4.6680     0.0000   464.0000 </r>
       <r>     4.8502     0.0000   464.0000 </r>
       <r>     5.0325     0.0000   464.0000 </r>
       <r>     5.2147     1.6457   464.0848 </r>
       <r>     5.3970     5.2836   464.7161 </r>
       <r>     5.5792     8.9283   466.0111 </r>
       <r>     5.7615    45.6366   468.0980 </r>
       <r>     5.9437    13.7566   472.1881 </r>
       <r>     6.1260    11.5899   474.4931 </r>
       <r>     6.3082    11.9599   476.5944 </r>
       <r>     6.4905    13.3892   478.9046 </r>
       <r>     6.6727    14.7993   481.4736 </r>
       <r>     6.8550    16.1901   484.2978 </r>
       <r>     7.0372    19.1271   487.4607 </r>
       <r>     7.2195    29.8512   491.7801 </r>
       <r>     7.4017    53.5655   499.4975 </r>
       <r>     7.5840    22.5279   506.3453 </r>
       <r>     7.7662    42.3709   512.2272 </r>
       <r>     7.9485    55.2642   521.6971 </r>
       <r>     8.1307    22.1949   527.4907 </r>
       <r>     8.3130    18.6073   531.0308 </r>
       <r>     8.4952    22.4161   534.7847 </r>
       <r>     8.6775    23.6289   539.1390 </r>
       <r>     8.8597    57.8387   545.6405 </r>
       <r>     9.0420    25.6187   552.2881 </r>
       <r>     9.2243    13.3920   555.6291 </r>
       <r>     9.4065     9.4529   557.7141 </r>
       <r>     9.5888     7.0206   559.5245 </r>
       <r>     9.7710     0.3433   559.9924 </r>
       <r>     9.9533     0.0000   560.0000 </r>
       <r>    10.1355     0.0000   560.0000 </r>
       <r>    10.3178     0.0000   560.0000 </r>
       <r>    10.5000     0.0000   560.0000 </r>
       <r>    10.6823     0.0000   560.0000 </r>
       <r>    10.8645     0.0000   560.0000 </r>
       <r>    11.0468     0.0000   560.0000 </r>
       <r>    11.2290     0.0000   560.0000 </r>
       <r>    11.4113     0.0000   560.0000 </r>
       <r>    11.5935     0.0000   560.0000 </r>
       <r>    11.7758     0.0000   560.0000 </r>
       <r>    11.9580     0.0000   560.0000 </r>
       <r>    12.1403     0.0000   560.0000 </r>
       <r>    12.3225     0.0000   560.0000 </r>
      </set>
     </set>
    </array>
   </total>
  </dos>
 </calculation>
 <structure name="finalpos" >
  <crystal>
   <varray name="basis" >
    <v>      11.17850000       0.00000000       0.00000000 </v>
    <v>       0.00000000       9.57460000       0.00000000 </v>
    <v>       0.00000000       0.00000000      11.18240000 </v>
   </varray>
   <i name="volume">   1196.84853820 </i>
   <varray name="rec_basis" >
    <v>       0.08945744       0.00000000       0.00000000 </v>
    <v>       0.00000000       0.10444301       0.00000000 </v>
    <v>       0.00000000       0.00000000       0.08942624 </v>
   </varray>
  </crystal>
  <varray name="positions" >
   <v>       0.37539000       0.00017000       0.43687000 </v>
   <v>       0.12461000       0.99984000       0.18687000 </v>
   <v>       0.62539000       0.99984000       0.43687000 </v>
   <v>       0.87461000       0.00017000       0.18687000 </v>
   <v>       0.37539000       0.00017000       0.93687000 </v>
   <v>       0.37461000       0.00017000       0.68687000 </v>
   <v>       0.62539000       0.99984000       0.93687000 </v>
   <v>       0.62461000       0.99984000       0.68687000 </v>
   <v>       0.37461000       0.00017000       0.18687000 </v>
   <v>       0.87539000       0.00017000       0.43687000 </v>
   <v>       0.12461000       0.99984000       0.68687000 </v>
   <v>       0.87539000       0.00017000       0.93687000 </v>
   <v>       0.00013000       0.29519000       0.06281000 </v>
   <v>       0.25013000       0.70481000       0.06281000 </v>
   <v>       0.24987000       0.29519000       0.31282000 </v>
   <v>       0.49987000       0.70481000       0.31282000 </v>
   <v>       0.50013000       0.29519000       0.06281000 </v>
   <v>       0.75013000       0.70481000       0.06281000 </v>
   <v>       0.74987000       0.29519000       0.31282000 </v>
   <v>       0.99987000       0.70481000       0.31282000 </v>
   <v>       0.00013000       0.29519000       0.56281000 </v>
   <v>       0.25013000       0.70481000       0.56281000 </v>
   <v>       0.24987000       0.29519000       0.81282000 </v>
   <v>       0.49987000       0.70481000       0.81282000 </v>
   <v>       0.50013000       0.29519000       0.56281000 </v>
   <v>       0.75013000       0.70481000       0.56281000 </v>
   <v>       0.74987000       0.29519000       0.81282000 </v>
   <v>       0.99987000       0.70481000       0.81282000 </v>
   <v>       0.25005000       0.32677000       0.06286000 </v>
   <v>       0.00005000       0.67323000       0.06286000 </v>
   <v>       0.49995000       0.32677000       0.31286000 </v>
   <v>       0.24995000       0.67323000       0.31286000 </v>
   <v>       0.75005000       0.32677000       0.06286000 </v>
   <v>       0.50005000       0.67323000       0.06286000 </v>
   <v>       0.99995000       0.32677000       0.31286000 </v>
   <v>       0.74995000       0.67323000       0.31286000 </v>
   <v>       0.25005000       0.32677000       0.56286000 </v>
   <v>       0.00005000       0.67323000       0.56286000 </v>
   <v>       0.49995000       0.32677000       0.81286000 </v>
   <v>       0.24995000       0.67323000       0.81286000 </v>
   <v>       0.75005000       0.32677000       0.56286000 </v>
   <v>       0.50005000       0.67323000       0.56286000 </v>
   <v>       0.99995000       0.32677000       0.81286000 </v>
   <v>       0.74995000       0.67323000       0.81286000 </v>
   <v>       0.49987000       0.07798000       0.06246000 </v>
   <v>       0.24987000       0.92202000       0.06246000 </v>
   <v>       0.25013000       0.07798000       0.31246000 </v>
   <v>       0.00013000       0.92202000       0.31246000 </v>
   <v>       0.99987000       0.07798000       0.06246000 </v>
   <v>       0.74987000       0.92202000       0.06246000 </v>
   <v>       0.75013000       0.07798000       0.31246000 </v>
   <v>       0.50013000       0.92202000       0.31246000 </v>
   <v>       0.49987000       0.07798000       0.56246000 </v>
   <v>       0.24987000       0.92202000       0.56246000 </v>
   <v>       0.25013000       0.07798000       0.81246000 </v>
   <v>       0.00013000       0.92202000       0.81246000 </v>
   <v>       0.99987000       0.07798000       0.56246000 </v>
   <v>       0.74987000       0.92202000       0.56246000 </v>
   <v>       0.75013000       0.07798000       0.81246000 </v>
   <v>       0.50013000       0.92202000       0.81246000 </v>
  </varray>
 </structure>
</modeling>
