<?xml version="1.0" encoding="ISO-8859-1"?>
<modeling>
 <generator>
  <i name="program" type="string">vasp </i>
  <i name="version" type="string">5.4.4.18Apr17-6-g9f103f2a35  </i>
  <i name="subversion" type="string">(build Jul 31 2017 11:33:29) complex            parallel </i>
  <i name="platform" type="string">LinuxIFC </i>
  <i name="date" type="string">2021 09 25 </i>
  <i name="time" type="string">16:27:36 </i>
 </generator>
 <incar>
  <i type="string" name="SYSTEM"> La2O2S</i>
  <i type="string" name="PREC">normal</i>
  <i type="int" name="NELMIN">     4</i>
  <i type="int" name="IBRION">     2</i>
  <i type="int" name="NFREE">    10</i>
  <i name="EDIFF">      0.00000100</i>
  <i name="EDIFFG">     -0.01000000</i>
  <i type="int" name="NSW">   200</i>
  <i type="int" name="ISIF">     3</i>
  <i name="ENCUT">    600.00000000</i>
  <i name="ENAUG">    900.00000000</i>
  <i type="int" name="ISMEAR">    -5</i>
  <i type="logical" name="LWAVE"> F  </i>
  <i type="logical" name="LCHARG"> F  </i>
  <v type="int" name="KPOINT_BSE">    -1     0     0     0</v>
 </incar>
 <structure name="primitive_cell" >
  <crystal>
   <varray name="basis" >
    <v>      -5.58925000       0.00000000       0.00000000 </v>
    <v>       0.00000000       0.00000000      -5.59120000 </v>
    <v>       0.00000000      -9.57460000       0.00000000 </v>
   </varray>
   <i name="volume">    299.21213455 </i>
   <varray name="rec_basis" >
    <v>      -0.17891488       0.00000000       0.00000000 </v>
    <v>       0.00000000       0.00000000      -0.17885248 </v>
    <v>       0.00000000      -0.10444301       0.00000000 </v>
   </varray>
  </crystal>
  <varray name="positions" >
   <v>      -0.25078000       0.12626000       0.00017000 </v>
   <v>       0.49974000       0.37508000      -0.07798000 </v>
   <v>      -0.00026000       0.37508000       0.07798000 </v>
   <v>      -0.49974000      -0.12492000       0.07798000 </v>
   <v>       0.00026000      -0.12492000      -0.07798000 </v>
   <v>       0.24922000       0.12626000      -0.00017000 </v>
   <v>      -0.24922000      -0.37374000       0.00017000 </v>
   <v>      -0.49974000       0.37436000      -0.29519000 </v>
   <v>       0.00026000       0.37436000       0.29519000 </v>
   <v>       0.49974000      -0.12564000       0.29519000 </v>
   <v>      -0.00026000      -0.12564000      -0.29519000 </v>
   <v>      -0.49990000       0.37428000       0.32677000 </v>
   <v>       0.00010000       0.37428000      -0.32677000 </v>
   <v>       0.49990000      -0.12572000      -0.32677000 </v>
   <v>      -0.00010000      -0.12572000       0.32677000 </v>
   <v>       0.25078000      -0.37374000      -0.00017000 </v>
  </varray>
 </structure>
 <varray name="primitive_index" >
  <v type="int" >        1 </v>
  <v type="int" >       52 </v>
  <v type="int" >       50 </v>
  <v type="int" >       59 </v>
  <v type="int" >       61 </v>
  <v type="int" >        2 </v>
  <v type="int" >        3 </v>
  <v type="int" >       19 </v>
  <v type="int" >       24 </v>
  <v type="int" >       26 </v>
  <v type="int" >       25 </v>
  <v type="int" >       36 </v>
  <v type="int" >       39 </v>
  <v type="int" >       41 </v>
  <v type="int" >       42 </v>
  <v type="int" >        4 </v>
 </varray>
 <kpoints>
  <generation param="Gamma">
   <v type="int" name="divisions">       2        2        2 </v>
   <v name="usershift">      0.00000000       0.00000000       0.00000000 </v>
   <v name="genvec1">      0.50000000       0.00000000       0.00000000 </v>
   <v name="genvec2">      0.00000000       0.50000000       0.00000000 </v>
   <v name="genvec3">      0.00000000       0.00000000       0.50000000 </v>
   <v name="shift">      0.00000000       0.00000000       0.00000000 </v>
  </generation>
  <varray name="kpointlist" >
   <v>       0.00000000       0.00000000       0.00000000 </v>
   <v>       0.50000000       0.00000000       0.00000000 </v>
   <v>       0.00000000       0.50000000       0.00000000 </v>
   <v>       0.50000000       0.50000000       0.00000000 </v>
   <v>       0.00000000       0.00000000       0.50000000 </v>
   <v>       0.50000000       0.00000000       0.50000000 </v>
   <v>       0.00000000       0.50000000       0.50000000 </v>
   <v>       0.50000000       0.50000000       0.50000000 </v>
  </varray>
  <varray name="weights" >
   <v>       0.12500000 </v>
   <v>       0.12500000 </v>
   <v>       0.12500000 </v>
   <v>       0.12500000 </v>
   <v>       0.12500000 </v>
   <v>       0.12500000 </v>
   <v>       0.12500000 </v>
   <v>       0.12500000 </v>
  </varray>
  <varray name="tetrahedronlist"  type="int" >
   <v type="int" >        2        1        2        4        5 </v>
   <v type="int" >        2        1        3        4        5 </v>
   <v type="int" >        2        3        4        5        7 </v>
   <v type="int" >        2        2        4        5        6 </v>
   <v type="int" >        2        4        5        6        8 </v>
   <v type="int" >        2        4        5        7        8 </v>
   <v type="int" >        2        1        2        3        6 </v>
   <v type="int" >        2        2        3        4        6 </v>
   <v type="int" >        2        3        4        6        8 </v>
   <v type="int" >        2        1        3        5        6 </v>
   <v type="int" >        2        3        5        6        7 </v>
   <v type="int" >        2        3        6        7        8 </v>
   <v type="int" >        2        2        3        4        7 </v>
   <v type="int" >        2        1        2        3        7 </v>
   <v type="int" >        2        1        2        5        7 </v>
   <v type="int" >        2        2        4        7        8 </v>
   <v type="int" >        2        2        6        7        8 </v>
   <v type="int" >        2        2        5        6        7 </v>
   <v type="int" >        2        1        3        4        8 </v>
   <v type="int" >        2        1        2        4        8 </v>
   <v type="int" >        2        1        2        6        8 </v>
   <v type="int" >        2        1        3        7        8 </v>
   <v type="int" >        2        1        5        7        8 </v>
   <v type="int" >        2        1        5        6        8 </v>
  </varray>
  <i name="volumeweight">      0.02083333 </i>
 </kpoints>
 <parameters>
  <separator name="general" >
   <i type="string" name="SYSTEM">La2O2S</i>
   <i type="logical" name="LCOMPAT"> F  </i>
  </separator>
  <separator name="electronic" >
   <i type="string" name="PREC">normal</i>
   <i name="ENMAX">    600.00000000</i>
   <i name="ENAUG">    900.00000000</i>
   <i name="EDIFF">      0.00000100</i>
   <i type="int" name="IALGO">    38</i>
   <i type="int" name="IWAVPR">    11</i>
   <i type="int" name="NBANDS">   308</i>
   <i name="NELECT">    480.00000000</i>
   <i type="int" name="TURBO">     0</i>
   <i type="int" name="IRESTART">     0</i>
   <i type="int" name="NREBOOT">     0</i>
   <i type="int" name="NMIN">     0</i>
   <i name="EREF">      0.00000000</i>
   <separator name="electronic smearing" >
    <i type="int" name="ISMEAR">    -5</i>
    <i name="SIGMA">      0.20000000</i>
    <i name="KSPACING">      0.50000000</i>
    <i type="logical" name="KGAMMA"> T  </i>
   </separator>
   <separator name="electronic projectors" >
    <i type="logical" name="LREAL"> F  </i>
    <v name="ROPT">      0.00000000      0.00000000      0.00000000      0.00000000</v>
    <i type="int" name="LMAXPAW">  -100</i>
    <i type="int" name="LMAXMIX">     2</i>
    <i type="logical" name="NLSPLINE"> F  </i>
   </separator>
   <separator name="electronic startup" >
    <i type="int" name="ISTART">     0</i>
    <i type="int" name="ICHARG">     2</i>
    <i type="int" name="INIWAV">     1</i>
   </separator>
   <separator name="electronic spin" >
    <i type="int" name="ISPIN">     1</i>
    <i type="logical" name="LNONCOLLINEAR"> F  </i>
    <v name="MAGMOM">      1.00000000      1.00000000      1.00000000      1.00000000      1.00000000      1.00000000      1.00000000      1.00000000      1.00000000      1.00000000      1.00000000      1.00000000      1.00000000      1.00000000      1.00000000      1.00000000      1.00000000      1.00000000      1.00000000      1.00000000
      1.00000000      1.00000000      1.00000000      1.00000000      1.00000000      1.00000000      1.00000000      1.00000000      1.00000000      1.00000000      1.00000000      1.00000000      1.00000000      1.00000000      1.00000000      1.00000000      1.00000000      1.00000000      1.00000000      1.00000000
      1.00000000      1.00000000      1.00000000      1.00000000      1.00000000      1.00000000      1.00000000      1.00000000      1.00000000      1.00000000      1.00000000      1.00000000      1.00000000      1.00000000      1.00000000      1.00000000      1.00000000      1.00000000      1.00000000      1.00000000
      1.00000000      1.00000000      1.00000000      1.00000000</v>
    <i name="NUPDOWN">     -1.00000000</i>
    <i type="logical" name="LSORBIT"> F  </i>
    <v name="SAXIS">      0.00000000      0.00000000      1.00000000</v>
    <i type="logical" name="LSPIRAL"> F  </i>
    <v name="QSPIRAL">      0.00000000      0.00000000      0.00000000</v>
    <i type="logical" name="LZEROZ"> F  </i>
   </separator>
   <separator name="electronic exchange-correlation" >
    <i type="logical" name="LASPH"> F  </i>
    <i type="logical" name="LMETAGGA"> F  </i>
   </separator>
   <separator name="electronic convergence" >
    <i type="int" name="NELM">    60</i>
    <i type="int" name="NELMDL">    -5</i>
    <i type="int" name="NELMIN">     4</i>
    <i name="ENINI">    600.00000000</i>
    <separator name="electronic convergence detail" >
     <i type="logical" name="LDIAG"> T  </i>
     <i type="logical" name="LSUBROT"> F  </i>
     <i name="WEIMIN">      0.00100000</i>
     <i name="EBREAK">      0.00000000</i>
     <i name="DEPER">      0.30000000</i>
     <i type="int" name="NRMM">     4</i>
     <i name="TIME">      0.40000000</i>
    </separator>
   </separator>
   <separator name="electronic mixer" >
    <i name="AMIX">      0.40000000</i>
    <i name="BMIX">      1.00000000</i>
    <i name="AMIN">      0.10000000</i>
    <i name="AMIX_MAG">      1.60000000</i>
    <i name="BMIX_MAG">      1.00000000</i>
    <separator name="electronic mixer details" >
     <i type="int" name="IMIX">     4</i>
     <i type="logical" name="MIXFIRST"> F  </i>
     <i type="int" name="MAXMIX">   -45</i>
     <i name="WC">    100.00000000</i>
     <i type="int" name="INIMIX">     1</i>
     <i type="int" name="MIXPRE">     1</i>
     <i type="int" name="MREMOVE">     5</i>
    </separator>
   </separator>
   <separator name="electronic dipolcorrection" >
    <i type="logical" name="LDIPOL"> F  </i>
    <i type="logical" name="LMONO"> F  </i>
    <i type="int" name="IDIPOL">     0</i>
    <i name="EPSILON">      1.00000000</i>
    <v name="DIPOL">   -100.00000000   -100.00000000   -100.00000000</v>
    <i name="EFIELD">      0.00000000</i>
   </separator>
  </separator>
  <separator name="grids" >
   <i type="int" name="NGX">    70</i>
   <i type="int" name="NGY">    60</i>
   <i type="int" name="NGZ">    70</i>
   <i type="int" name="NGXF">   140</i>
   <i type="int" name="NGYF">   120</i>
   <i type="int" name="NGZF">   140</i>
   <i type="logical" name="ADDGRID"> F  </i>
  </separator>
  <separator name="ionic" >
   <i type="int" name="NSW">   200</i>
   <i type="int" name="IBRION">     2</i>
   <i type="int" name="MDALGO">     0</i>
   <i type="int" name="ISIF">     3</i>
   <i name="PSTRESS">      0.00000000</i>
   <i name="EDIFFG">     -0.01000000</i>
   <i type="int" name="NFREE">    10</i>
   <i name="POTIM">      0.50000000</i>
   <i name="SMASS">     -3.00000000</i>
   <i name="SCALEE">      1.00000000</i>
  </separator>
  <separator name="ionic md" >
   <i name="TEBEG">      0.00010000</i>
   <i name="TEEND">      0.00010000</i>
   <i type="int" name="NBLOCK">     1</i>
   <i type="int" name="KBLOCK">   200</i>
   <i type="int" name="NPACO">   256</i>
   <i name="APACO">     16.00000000</i>
  </separator>
  <separator name="symmetry" >
   <i type="int" name="ISYM">     2</i>
   <i name="SYMPREC">      0.00001000</i>
  </separator>
  <separator name="dos" >
   <i type="int" name="LORBIT">     0</i>
   <v name="RWIGS">     -1.00000000     -1.00000000     -1.00000000     -1.00000000</v>
   <i type="int" name="NEDOS">   301</i>
   <i name="EMIN">     10.00000000</i>
   <i name="EMAX">    -10.00000000</i>
   <i name="EFERMI">      0.00000000</i>
  </separator>
  <separator name="writing" >
   <i type="int" name="NWRITE">     2</i>
   <i type="logical" name="LWAVE"> F  </i>
   <i type="logical" name="LDOWNSAMPLE"> F  </i>
   <i type="logical" name="LCHARG"> F  </i>
   <i type="logical" name="LPARD"> F  </i>
   <i type="logical" name="LVTOT"> F  </i>
   <i type="logical" name="LVHAR"> F  </i>
   <i type="logical" name="LELF"> F  </i>
   <i type="logical" name="LOPTICS"> F  </i>
   <v name="STM">      0.00000000      0.00000000      0.00000000      0.00000000      0.00000000      0.00000000      0.00000000</v>
  </separator>
  <separator name="performance" >
   <i type="int" name="NPAR">    28</i>
   <i type="int" name="NSIM">     4</i>
   <i type="int" name="NBLK">    -1</i>
   <i type="logical" name="LPLANE"> T  </i>
   <i type="logical" name="LSCALAPACK"> T  </i>
   <i type="logical" name="LSCAAWARE"> F  </i>
   <i type="logical" name="LSCALU"> F  </i>
   <i type="logical" name="LASYNC"> F  </i>
   <i type="logical" name="LORBITALREAL"> F  </i>
  </separator>
  <separator name="miscellaneous" >
   <i type="int" name="IDIOT">     3</i>
   <i type="int" name="ISPECIAL">     0</i>
   <i type="logical" name="LMUSIC"> F  </i>
   <v name="POMASS">      7.01000000    208.98000000     32.06600000     16.00000000</v>
   <v name="DARWINR">      0.00000000      0.00000000      0.00000000      0.00000000</v>
   <v name="DARWINV">      1.00000000      1.00000000      1.00000000      1.00000000</v>
   <i type="logical" name="LCORR"> T  </i>
  </separator>
  <i type="logical" name="GGA_COMPAT"> T  </i>
  <i type="logical" name="LBERRY"> F  </i>
  <i type="int" name="ICORELEVEL">     0</i>
  <i type="logical" name="LDAU"> F  </i>
  <i type="int" name="I_CONSTRAINED_M">     0</i>
  <separator name="electronic exchange-correlation" >
   <i type="string" name="GGA">--</i>
   <i type="int" name="VOSKOWN">     0</i>
   <i type="logical" name="LHFCALC"> F  </i>
   <i type="string" name="PRECFOCK"></i>
   <i type="logical" name="LSYMGRAD"> F  </i>
   <i type="logical" name="LHFONE"> F  </i>
   <i type="logical" name="LRHFCALC"> F  </i>
   <i type="logical" name="LTHOMAS"> F  </i>
   <i type="logical" name="LMODELHF"> F  </i>
   <i name="ENCUT4O">     -1.00000000</i>
   <i type="int" name="EXXOEP">     0</i>
   <i type="int" name="FOURORBIT">     0</i>
   <i name="AEXX">      0.00000000</i>
   <i name="HFALPHA">      0.00000000</i>
   <i name="MCALPHA">      0.00000000</i>
   <i name="ALDAX">      1.00000000</i>
   <i name="AGGAX">      1.00000000</i>
   <i name="ALDAC">      1.00000000</i>
   <i name="AGGAC">      1.00000000</i>
   <i type="int" name="NKREDX">     1</i>
   <i type="int" name="NKREDY">     1</i>
   <i type="int" name="NKREDZ">     1</i>
   <i type="logical" name="SHIFTRED"> F  </i>
   <i type="logical" name="ODDONLY"> F  </i>
   <i type="logical" name="EVENONLY"> F  </i>
   <i type="int" name="LMAXFOCK">     0</i>
   <i type="int" name="NMAXFOCKAE">     0</i>
   <i type="logical" name="LFOCKAEDFT"> F  </i>
   <i name="HFSCREEN">      0.00000000</i>
   <i name="HFSCREENC">      0.00000000</i>
   <i type="int" name="NBANDSGWLOW">     0</i>
  </separator>
  <separator name="vdW DFT" >
   <i type="logical" name="LUSE_VDW"> F  </i>
   <i name="Zab_VDW">     -0.84910000</i>
   <i name="PARAM1">      0.12340000</i>
   <i name="PARAM2">      1.00000000</i>
   <i name="PARAM3">      0.00000000</i>
  </separator>
  <separator name="model GW" >
   <i type="int" name="MODEL_GW">     0</i>
   <i name="MODEL_EPS0">     11.22045505</i>
   <i name="MODEL_ALPHA">      1.00000000</i>
  </separator>
  <separator name="linear response parameters" >
   <i type="logical" name="LEPSILON"> F  </i>
   <i type="logical" name="LRPA"> F  </i>
   <i type="logical" name="LNABLA"> F  </i>
   <i type="logical" name="LVEL"> F  </i>
   <i type="int" name="KINTER">     0</i>
   <i name="CSHIFT">      0.10000000</i>
   <i name="OMEGAMAX">     -1.00000000</i>
   <i name="DEG_THRESHOLD">      0.00200000</i>
   <i name="RTIME">     -0.10000000</i>
   <i name="WPLASMAI">      0.00000000</i>
   <v name="DFIELD">      0.00000000      0.00000000      0.00000000</v>
   <v name="WPLASMA">      0.00000000      0.00000000      0.00000000      0.00000000      0.00000000      0.00000000      0.00000000      0.00000000      0.00000000</v>
  </separator>
  <separator name="orbital magnetization" >
   <i type="logical" name="NUCIND"> F  </i>
   <v name="MAGPOS">      0.00000000      0.00000000      0.00000000</v>
   <i type="logical" name="LNICSALL"> T  </i>
   <i type="logical" name="ORBITALMAG"> F  </i>
   <i type="logical" name="LMAGBLOCH"> F  </i>
   <i type="logical" name="LCHIMAG"> F  </i>
   <i type="logical" name="LGAUGE"> T  </i>
   <i type="int" name="MAGATOM">     0</i>
   <v name="MAGDIPOL">      0.00000000      0.00000000      0.00000000</v>
   <v name="AVECCONST">      0.00000000      0.00000000      0.00000000</v>
  </separator>
  <separator name="response functions" >
   <i type="logical" name="LADDER"> F  </i>
   <i type="logical" name="LRPAFORCE"> F  </i>
   <i type="logical" name="LFXC"> F  </i>
   <i type="logical" name="LHARTREE"> T  </i>
   <i type="int" name="IBSE">     0</i>
   <v type="int" name="KPOINT">    -1     0     0     0</v>
   <i type="logical" name="LTCTE"> F  </i>
   <i type="logical" name="LTETE"> F  </i>
   <i type="logical" name="LTRIPLET"> F  </i>
   <i type="logical" name="LFXCEPS"> F  </i>
   <i type="logical" name="LFXHEG"> F  </i>
   <i type="int" name="NATURALO">     2</i>
   <i type="logical" name="L2ORDER"> F  </i>
   <i type="logical" name="LMP2LT"> F  </i>
   <i type="logical" name="LUSEW"> F  </i>
   <i name="ENCUTGW">     -2.00000000</i>
   <i name="ENCUTGWSOFT">     -2.00000000</i>
   <i name="ENCUTLF">     -1.00000000</i>
   <i type="int" name="LMAXMP2">    -1</i>
   <i name="SCISSOR">      0.00000000</i>
   <i type="int" name="NOMEGA">     0</i>
   <i type="int" name="NOMEGAR">     0</i>
   <i type="int" name="NBANDSGW">    -1</i>
   <i type="int" name="NBANDSO">    -1</i>
   <i type="int" name="NBANDSV">    -1</i>
   <i type="int" name="NELM">     1</i>
   <i type="int" name="NELMHF">     1</i>
   <i type="int" name="DIM">     3</i>
   <i type="int" name="ANTIRES">     0</i>
   <i name="OMEGAMAX">    -30.00000000</i>
   <i name="OMEGAMIN">    -30.00000000</i>
   <i name="OMEGATL">   -200.00000000</i>
   <i type="int" name="OMEGAGRID">   140</i>
   <i name="CSHIFT">     -0.10000000</i>
   <i type="logical" name="SELFENERGY"> F  </i>
   <i type="logical" name="LSPECTRAL"> F  </i>
   <i type="logical" name="LSPECTRALGW"> F  </i>
   <i type="logical" name="LSINGLES"> F  </i>
   <i type="logical" name="LFERMIGW"> F  </i>
   <i type="logical" name="ODDONLYGW"> F  </i>
   <i type="logical" name="EVENONLYGW"> F  </i>
   <i type="int" name="NKREDLFX">     1</i>
   <i type="int" name="NKREDLFY">     1</i>
   <i type="int" name="NKREDLFZ">     1</i>
   <i type="int" name="MAXMEM">  2800</i>
   <i type="int" name="TELESCOPE">     0</i>
   <i type="int" name="TAUPAR">     1</i>
   <i type="int" name="OMEGAPAR">    -1</i>
   <i name="LAMBDA">      1.00000000</i>
  </separator>
  <separator name="External order field" >
   <i name="OFIELD_KAPPA">      0.00000000</i>
   <v name="OFIELD_K">      0.00000000      0.00000000      0.00000000</v>
   <i name="OFIELD_Q6_NEAR">      0.00000000</i>
   <i name="OFIELD_Q6_FAR">      0.00000000</i>
   <i name="OFIELD_A">      0.00000000</i>
  </separator>
 </parameters>
 <atominfo>
  <atoms>      64 </atoms>
  <types>       4 </types>
  <array name="atoms" >
   <dimension dim="1">ion</dimension>
   <field type="string">element</field>
   <field type="int">atomtype</field>
   <set>
    <rc><c>Li</c><c>   1</c></rc>
    <rc><c>Li</c><c>   1</c></rc>
    <rc><c>Li</c><c>   1</c></rc>
    <rc><c>Li</c><c>   1</c></rc>
    <rc><c>Li</c><c>   1</c></rc>
    <rc><c>Li</c><c>   1</c></rc>
    <rc><c>Li</c><c>   1</c></rc>
    <rc><c>Li</c><c>   1</c></rc>
    <rc><c>Li</c><c>   1</c></rc>
    <rc><c>Li</c><c>   1</c></rc>
    <rc><c>Li</c><c>   1</c></rc>
    <rc><c>Li</c><c>   1</c></rc>
    <rc><c>Li</c><c>   1</c></rc>
    <rc><c>Li</c><c>   1</c></rc>
    <rc><c>Li</c><c>   1</c></rc>
    <rc><c>Li</c><c>   1</c></rc>
    <rc><c>Bi</c><c>   2</c></rc>
    <rc><c>Bi</c><c>   2</c></rc>
    <rc><c>Bi</c><c>   2</c></rc>
    <rc><c>Bi</c><c>   2</c></rc>
    <rc><c>Bi</c><c>   2</c></rc>
    <rc><c>Bi</c><c>   2</c></rc>
    <rc><c>Bi</c><c>   2</c></rc>
    <rc><c>Bi</c><c>   2</c></rc>
    <rc><c>Bi</c><c>   2</c></rc>
    <rc><c>Bi</c><c>   2</c></rc>
    <rc><c>Bi</c><c>   2</c></rc>
    <rc><c>Bi</c><c>   2</c></rc>
    <rc><c>Bi</c><c>   2</c></rc>
    <rc><c>Bi</c><c>   2</c></rc>
    <rc><c>Bi</c><c>   2</c></rc>
    <rc><c>Bi</c><c>   2</c></rc>
    <rc><c>S </c><c>   3</c></rc>
    <rc><c>S </c><c>   3</c></rc>
    <rc><c>S </c><c>   3</c></rc>
    <rc><c>S </c><c>   3</c></rc>
    <rc><c>S </c><c>   3</c></rc>
    <rc><c>S </c><c>   3</c></rc>
    <rc><c>S </c><c>   3</c></rc>
    <rc><c>S </c><c>   3</c></rc>
    <rc><c>S </c><c>   3</c></rc>
    <rc><c>S </c><c>   3</c></rc>
    <rc><c>S </c><c>   3</c></rc>
    <rc><c>S </c><c>   3</c></rc>
    <rc><c>S </c><c>   3</c></rc>
    <rc><c>S </c><c>   3</c></rc>
    <rc><c>S </c><c>   3</c></rc>
    <rc><c>S </c><c>   3</c></rc>
    <rc><c>O </c><c>   4</c></rc>
    <rc><c>O </c><c>   4</c></rc>
    <rc><c>O </c><c>   4</c></rc>
    <rc><c>O </c><c>   4</c></rc>
    <rc><c>O </c><c>   4</c></rc>
    <rc><c>O </c><c>   4</c></rc>
    <rc><c>O </c><c>   4</c></rc>
    <rc><c>O </c><c>   4</c></rc>
    <rc><c>O </c><c>   4</c></rc>
    <rc><c>O </c><c>   4</c></rc>
    <rc><c>O </c><c>   4</c></rc>
    <rc><c>O </c><c>   4</c></rc>
    <rc><c>O </c><c>   4</c></rc>
    <rc><c>O </c><c>   4</c></rc>
    <rc><c>O </c><c>   4</c></rc>
    <rc><c>O </c><c>   4</c></rc>
   </set>
  </array>
  <array name="atomtypes" >
   <dimension dim="1">type</dimension>
   <field type="int">atomspertype</field>
   <field type="string">element</field>
   <field>mass</field>
   <field>valence</field>
   <field type="string">pseudopotential</field>
   <set>
    <rc><c>  16</c><c>Li</c><c>      7.01000000</c><c>      3.00000000</c><c>  PAW_PBE Li_sv 10Sep2004               </c></rc>
    <rc><c>  16</c><c>Bi</c><c>    208.98000000</c><c>     15.00000000</c><c>  PAW_PBE Bi_d 06Sep2000                </c></rc>
    <rc><c>  16</c><c>S </c><c>     32.06600000</c><c>      6.00000000</c><c>  PAW_PBE S 06Sep2000                   </c></rc>
    <rc><c>  16</c><c>O </c><c>     16.00000000</c><c>      6.00000000</c><c>  PAW_PBE O 08Apr2002                   </c></rc>
   </set>
  </array>
 </atominfo>
 <structure name="initialpos" >
  <crystal>
   <varray name="basis" >
    <v>      11.17850000       0.00000000       0.00000000 </v>
    <v>       0.00000000       9.57460000       0.00000000 </v>
    <v>       0.00000000       0.00000000      11.18240000 </v>
   </varray>
   <i name="volume">   1196.84853820 </i>
   <varray name="rec_basis" >
    <v>       0.08945744       0.00000000       0.00000000 </v>
    <v>       0.00000000       0.10444301       0.00000000 </v>
    <v>       0.00000000       0.00000000       0.08942624 </v>
   </varray>
  </crystal>
  <varray name="positions" >
   <v>       0.12539000       0.99983000       0.43687000 </v>
   <v>       0.37539000       0.00017000       0.43687000 </v>
   <v>       0.12461000       0.99983000       0.18687000 </v>
   <v>       0.37461000       0.00017000       0.18687000 </v>
   <v>       0.62539000       0.99983000       0.43687000 </v>
   <v>       0.87539000       0.00017000       0.43687000 </v>
   <v>       0.62461000       0.99983000       0.18687000 </v>
   <v>       0.87461000       0.00017000       0.18687000 </v>
   <v>       0.12539000       0.99983000       0.93687000 </v>
   <v>       0.37539000       0.00017000       0.93687000 </v>
   <v>       0.12461000       0.99983000       0.68687000 </v>
   <v>       0.37461000       0.00017000       0.68687000 </v>
   <v>       0.62539000       0.99983000       0.93687000 </v>
   <v>       0.87539000       0.00017000       0.93687000 </v>
   <v>       0.62461000       0.99983000       0.68687000 </v>
   <v>       0.87461000       0.00017000       0.68687000 </v>
   <v>       0.00013000       0.29519000       0.06282000 </v>
   <v>       0.25013000       0.70481000       0.06282000 </v>
   <v>       0.24987000       0.29519000       0.31282000 </v>
   <v>       0.49987000       0.70481000       0.31282000 </v>
   <v>       0.50013000       0.29519000       0.06282000 </v>
   <v>       0.75013000       0.70481000       0.06282000 </v>
   <v>       0.74987000       0.29519000       0.31282000 </v>
   <v>       0.99987000       0.70481000       0.31282000 </v>
   <v>       0.00013000       0.29519000       0.56282000 </v>
   <v>       0.25013000       0.70481000       0.56282000 </v>
   <v>       0.24987000       0.29519000       0.81282000 </v>
   <v>       0.49987000       0.70481000       0.81282000 </v>
   <v>       0.50013000       0.29519000       0.56282000 </v>
   <v>       0.75013000       0.70481000       0.56282000 </v>
   <v>       0.74987000       0.29519000       0.81282000 </v>
   <v>       0.99987000       0.70481000       0.81282000 </v>
   <v>       0.25005000       0.32677000       0.06286000 </v>
   <v>       0.00005000       0.67323000       0.06286000 </v>
   <v>       0.49995000       0.32677000       0.31286000 </v>
   <v>       0.24995000       0.67323000       0.31286000 </v>
   <v>       0.75005000       0.32677000       0.06286000 </v>
   <v>       0.50005000       0.67323000       0.06286000 </v>
   <v>       0.99995000       0.32677000       0.31286000 </v>
   <v>       0.74995000       0.67323000       0.31286000 </v>
   <v>       0.25005000       0.32677000       0.56286000 </v>
   <v>       0.00005000       0.67323000       0.56286000 </v>
   <v>       0.49995000       0.32677000       0.81286000 </v>
   <v>       0.24995000       0.67323000       0.81286000 </v>
   <v>       0.75005000       0.32677000       0.56286000 </v>
   <v>       0.50005000       0.67323000       0.56286000 </v>
   <v>       0.99995000       0.32677000       0.81286000 </v>
   <v>       0.74995000       0.67323000       0.81286000 </v>
   <v>       0.49987000       0.07798000       0.06246000 </v>
   <v>       0.00013000       0.92202000       0.31246000 </v>
   <v>       0.24987000       0.92202000       0.06246000 </v>
   <v>       0.25013000       0.07798000       0.31246000 </v>
   <v>       0.99987000       0.07798000       0.06246000 </v>
   <v>       0.50013000       0.92202000       0.31246000 </v>
   <v>       0.74987000       0.92202000       0.06246000 </v>
   <v>       0.75013000       0.07798000       0.31246000 </v>
   <v>       0.49987000       0.07798000       0.56246000 </v>
   <v>       0.00013000       0.92202000       0.81246000 </v>
   <v>       0.24987000       0.92202000       0.56246000 </v>
   <v>       0.25013000       0.07798000       0.81246000 </v>
   <v>       0.99987000       0.07798000       0.56246000 </v>
   <v>       0.50013000       0.92202000       0.81246000 </v>
   <v>       0.74987000       0.92202000       0.56246000 </v>
   <v>       0.75013000       0.07798000       0.81246000 </v>
  </varray>
 </structure>
 <calculation>
  <scstep>
   <time name="dav">   64.74   64.98</time>
   <time name="total">   64.91   65.16</time>
   <energy>
    <i name="alphaZ">   1092.43471397 </i>
    <i name="ewald"> -31568.39909548 </i>
    <i name="hartreedc"> -12729.58983077 </i>
    <i name="XCdc">   1616.71016663 </i>
    <i name="pawpsdc">  37106.35172520 </i>
    <i name="pawaedc"> -36857.19982561 </i>
    <i name="eentropy">      0.00000000 </i>
    <i name="bandstr">   1495.17376147 </i>
    <i name="atom">  45938.60578856 </i>
    <i name="e_fr_energy">   6094.08740397 </i>
    <i name="e_wo_entrp">   6094.08740397 </i>
    <i name="e_0_energy">   6094.08740397 </i>
   </energy>
  </scstep>
  <scstep>
   <time name="dav">   64.60   64.62</time>
   <time name="total">   64.61   64.63</time>
   <energy>
    <i name="e_fr_energy">    800.07268886 </i>
    <i name="e_wo_entrp">    800.07268886 </i>
    <i name="e_0_energy">    800.07268886 </i>
   </energy>
  </scstep>
  <scstep>
   <time name="dav">   71.96   71.98</time>
   <time name="total">   71.97   71.98</time>
   <energy>
    <i name="e_fr_energy">   -241.42904779 </i>
    <i name="e_wo_entrp">   -241.42904779 </i>
    <i name="e_0_energy">   -241.42904779 </i>
   </energy>
  </scstep>
  <scstep>
   <time name="dav">   81.53   81.61</time>
   <time name="total">   81.54   81.61</time>
   <energy>
    <i name="e_fr_energy">   -363.41631781 </i>
    <i name="e_wo_entrp">   -363.41631781 </i>
    <i name="e_0_energy">   -363.41631781 </i>
   </energy>
  </scstep>
  <scstep>
   <time name="dav">  104.62  104.83</time>
   <time name="total">  105.41  105.67</time>
   <energy>
    <i name="e_fr_energy">   -373.27307299 </i>
    <i name="e_wo_entrp">   -373.27307299 </i>
    <i name="e_0_energy">   -373.27307299 </i>
   </energy>
  </scstep>
  <scstep>
   <time name="dav">   94.88   94.97</time>
   <time name="total">   95.81   95.90</time>
   <energy>
    <i name="e_fr_energy">   -310.38292670 </i>
    <i name="e_wo_entrp">   -310.38292670 </i>
    <i name="e_0_energy">   -310.38292670 </i>
   </energy>
  </scstep>
  <scstep>
   <time name="dav">   72.72   72.84</time>
   <time name="total">   73.56   73.69</time>
   <energy>
    <i name="e_fr_energy">   -312.82447419 </i>
    <i name="e_wo_entrp">   -312.82447419 </i>
    <i name="e_0_energy">   -312.82447419 </i>
   </energy>
  </scstep>
  <scstep>
   <time name="dav">   81.59   81.61</time>
   <time name="total">   82.43   82.45</time>
   <energy>
    <i name="e_fr_energy">   -311.28553425 </i>
    <i name="e_wo_entrp">   -311.28553425 </i>
    <i name="e_0_energy">   -311.28553425 </i>
   </energy>
  </scstep>
  <scstep>
   <time name="dav">   96.89   97.02</time>
   <time name="total">   97.82   97.96</time>
   <energy>
    <i name="e_fr_energy">   -310.48703105 </i>
    <i name="e_wo_entrp">   -310.48703105 </i>
    <i name="e_0_energy">   -310.48703105 </i>
   </energy>
  </scstep>
  <scstep>
   <time name="dav">   81.37   81.48</time>
   <time name="total">   82.25   82.36</time>
   <energy>
    <i name="e_fr_energy">   -310.45325236 </i>
    <i name="e_wo_entrp">   -310.45325236 </i>
    <i name="e_0_energy">   -310.45325236 </i>
   </energy>
  </scstep>
  <scstep>
   <time name="dav">   84.10   84.27</time>
   <time name="total">   84.81   85.17</time>
   <energy>
    <i name="e_fr_energy">   -310.47136748 </i>
    <i name="e_wo_entrp">   -310.47136748 </i>
    <i name="e_0_energy">   -310.47136748 </i>
   </energy>
  </scstep>
  <scstep>
   <time name="dav">   89.53   89.68</time>
   <time name="total">   90.37   90.53</time>
   <energy>
    <i name="e_fr_energy">   -310.47523747 </i>
    <i name="e_wo_entrp">   -310.47523747 </i>
    <i name="e_0_energy">   -310.47523747 </i>
   </energy>
  </scstep>
  <scstep>
   <time name="dav">   85.44   85.80</time>
   <time name="total">   86.26   86.65</time>
   <energy>
    <i name="e_fr_energy">   -310.47652856 </i>
    <i name="e_wo_entrp">   -310.47652856 </i>
    <i name="e_0_energy">   -310.47652856 </i>
   </energy>
  </scstep>
  <scstep>
   <time name="dav">   84.94   85.43</time>
   <time name="total">   85.79   86.27</time>
   <energy>
    <i name="e_fr_energy">   -310.47637082 </i>
    <i name="e_wo_entrp">   -310.47637082 </i>
    <i name="e_0_energy">   -310.47637082 </i>
   </energy>
  </scstep>
  <scstep>
   <time name="dav">   81.78   82.23</time>
   <time name="total">   82.70   83.16</time>
   <energy>
    <i name="e_fr_energy">   -310.47641540 </i>
    <i name="e_wo_entrp">   -310.47641540 </i>
    <i name="e_0_energy">   -310.47641540 </i>
   </energy>
  </scstep>
  <scstep>
   <time name="dav">   78.20   78.80</time>
   <time name="total">   79.05   79.65</time>
   <energy>
    <i name="e_fr_energy">   -310.47642169 </i>
    <i name="e_wo_entrp">   -310.47642169 </i>
    <i name="e_0_energy">   -310.47642169 </i>
   </energy>
  </scstep>
  <scstep>
   <time name="dav">   71.86   72.02</time>
   <time name="total">   71.93   72.09</time>
   <energy>
    <i name="alphaZ">   1092.43471397 </i>
    <i name="ewald"> -31568.39909548 </i>
    <i name="hartreedc"> -12966.30138909 </i>
    <i name="XCdc">   1638.55122189 </i>
    <i name="pawpsdc">  44144.39693747 </i>
    <i name="pawaedc"> -43872.19510137 </i>
    <i name="eentropy">      0.00000000 </i>
    <i name="bandstr">  -4717.56949780 </i>
    <i name="atom">  45938.60578856 </i>
    <i name="e_fr_energy">   -310.47642185 </i>
    <i name="e_wo_entrp">   -310.47642185 </i>
    <i name="e_0_energy">   -310.47642185 </i>
   </energy>
  </scstep>
  <structure>
   <crystal>
    <varray name="basis" >
     <v>      11.17850000       0.00000000       0.00000000 </v>
     <v>       0.00000000       9.57460000       0.00000000 </v>
     <v>       0.00000000       0.00000000      11.18240000 </v>
    </varray>
    <i name="volume">   1196.84853820 </i>
    <varray name="rec_basis" >
     <v>       0.08945744       0.00000000       0.00000000 </v>
     <v>       0.00000000       0.10444301       0.00000000 </v>
     <v>       0.00000000       0.00000000       0.08942624 </v>
    </varray>
   </crystal>
   <varray name="positions" >
    <v>       0.12539000       0.99983000       0.43687000 </v>
    <v>       0.37539000       0.00017000       0.43687000 </v>
    <v>       0.12461000       0.99983000       0.18687000 </v>
    <v>       0.37461000       0.00017000       0.18687000 </v>
    <v>       0.62539000       0.99983000       0.43687000 </v>
    <v>       0.87539000       0.00017000       0.43687000 </v>
    <v>       0.62461000       0.99983000       0.18687000 </v>
    <v>       0.87461000       0.00017000       0.18687000 </v>
    <v>       0.12539000       0.99983000       0.93687000 </v>
    <v>       0.37539000       0.00017000       0.93687000 </v>
    <v>       0.12461000       0.99983000       0.68687000 </v>
    <v>       0.37461000       0.00017000       0.68687000 </v>
    <v>       0.62539000       0.99983000       0.93687000 </v>
    <v>       0.87539000       0.00017000       0.93687000 </v>
    <v>       0.62461000       0.99983000       0.68687000 </v>
    <v>       0.87461000       0.00017000       0.68687000 </v>
    <v>       0.00013000       0.29519000       0.06282000 </v>
    <v>       0.25013000       0.70481000       0.06282000 </v>
    <v>       0.24987000       0.29519000       0.31282000 </v>
    <v>       0.49987000       0.70481000       0.31282000 </v>
    <v>       0.50013000       0.29519000       0.06282000 </v>
    <v>       0.75013000       0.70481000       0.06282000 </v>
    <v>       0.74987000       0.29519000       0.31282000 </v>
    <v>       0.99987000       0.70481000       0.31282000 </v>
    <v>       0.00013000       0.29519000       0.56282000 </v>
    <v>       0.25013000       0.70481000       0.56282000 </v>
    <v>       0.24987000       0.29519000       0.81282000 </v>
    <v>       0.49987000       0.70481000       0.81282000 </v>
    <v>       0.50013000       0.29519000       0.56282000 </v>
    <v>       0.75013000       0.70481000       0.56282000 </v>
    <v>       0.74987000       0.29519000       0.81282000 </v>
    <v>       0.99987000       0.70481000       0.81282000 </v>
    <v>       0.25005000       0.32677000       0.06286000 </v>
    <v>       0.00005000       0.67323000       0.06286000 </v>
    <v>       0.49995000       0.32677000       0.31286000 </v>
    <v>       0.24995000       0.67323000       0.31286000 </v>
    <v>       0.75005000       0.32677000       0.06286000 </v>
    <v>       0.50005000       0.67323000       0.06286000 </v>
    <v>       0.99995000       0.32677000       0.31286000 </v>
    <v>       0.74995000       0.67323000       0.31286000 </v>
    <v>       0.25005000       0.32677000       0.56286000 </v>
    <v>       0.00005000       0.67323000       0.56286000 </v>
    <v>       0.49995000       0.32677000       0.81286000 </v>
    <v>       0.24995000       0.67323000       0.81286000 </v>
    <v>       0.75005000       0.32677000       0.56286000 </v>
    <v>       0.50005000       0.67323000       0.56286000 </v>
    <v>       0.99995000       0.32677000       0.81286000 </v>
    <v>       0.74995000       0.67323000       0.81286000 </v>
    <v>       0.49987000       0.07798000       0.06246000 </v>
    <v>       0.00013000       0.92202000       0.31246000 </v>
    <v>       0.24987000       0.92202000       0.06246000 </v>
    <v>       0.25013000       0.07798000       0.31246000 </v>
    <v>       0.99987000       0.07798000       0.06246000 </v>
    <v>       0.50013000       0.92202000       0.31246000 </v>
    <v>       0.74987000       0.92202000       0.06246000 </v>
    <v>       0.75013000       0.07798000       0.31246000 </v>
    <v>       0.49987000       0.07798000       0.56246000 </v>
    <v>       0.00013000       0.92202000       0.81246000 </v>
    <v>       0.24987000       0.92202000       0.56246000 </v>
    <v>       0.25013000       0.07798000       0.81246000 </v>
    <v>       0.99987000       0.07798000       0.56246000 </v>
    <v>       0.50013000       0.92202000       0.81246000 </v>
    <v>       0.74987000       0.92202000       0.56246000 </v>
    <v>       0.75013000       0.07798000       0.81246000 </v>
   </varray>
  </structure>
  <varray name="forces" >
   <v>      -0.00811339       0.00042697       0.00568741 </v>
   <v>      -0.00811339      -0.00042697       0.00568741 </v>
   <v>       0.00811339       0.00042697       0.00568741 </v>
   <v>       0.00811339      -0.00042697       0.00568741 </v>
   <v>      -0.00811339       0.00042697       0.00568741 </v>
   <v>      -0.00811339      -0.00042697       0.00568741 </v>
   <v>       0.00811339       0.00042697       0.00568741 </v>
   <v>       0.00811339      -0.00042697       0.00568741 </v>
   <v>      -0.00811339       0.00042697       0.00568741 </v>
   <v>      -0.00811339      -0.00042697       0.00568741 </v>
   <v>       0.00811339       0.00042697       0.00568741 </v>
   <v>       0.00811339      -0.00042697       0.00568741 </v>
   <v>      -0.00811339       0.00042697       0.00568741 </v>
   <v>      -0.00811339      -0.00042697       0.00568741 </v>
   <v>       0.00811339       0.00042697       0.00568741 </v>
   <v>       0.00811339      -0.00042697       0.00568741 </v>
   <v>      -0.00603216      -0.00932287      -0.00433111 </v>
   <v>      -0.00603216       0.00932287      -0.00433111 </v>
   <v>       0.00603216      -0.00932287      -0.00433111 </v>
   <v>       0.00603216       0.00932287      -0.00433111 </v>
   <v>      -0.00603216      -0.00932287      -0.00433111 </v>
   <v>      -0.00603216       0.00932287      -0.00433111 </v>
   <v>       0.00603216      -0.00932287      -0.00433111 </v>
   <v>       0.00603216       0.00932287      -0.00433111 </v>
   <v>      -0.00603216      -0.00932287      -0.00433111 </v>
   <v>      -0.00603216       0.00932287      -0.00433111 </v>
   <v>       0.00603216      -0.00932287      -0.00433111 </v>
   <v>       0.00603216       0.00932287      -0.00433111 </v>
   <v>      -0.00603216      -0.00932287      -0.00433111 </v>
   <v>      -0.00603216       0.00932287      -0.00433111 </v>
   <v>       0.00603216      -0.00932287      -0.00433111 </v>
   <v>       0.00603216       0.00932287      -0.00433111 </v>
   <v>      -0.00069610       0.17826363      -0.00014224 </v>
   <v>      -0.00069610      -0.17826363      -0.00014224 </v>
   <v>       0.00069610       0.17826363      -0.00014224 </v>
   <v>       0.00069610      -0.17826363      -0.00014224 </v>
   <v>      -0.00069610       0.17826363      -0.00014224 </v>
   <v>      -0.00069610      -0.17826363      -0.00014224 </v>
   <v>       0.00069610       0.17826363      -0.00014224 </v>
   <v>       0.00069610      -0.17826363      -0.00014224 </v>
   <v>      -0.00069610       0.17826363      -0.00014224 </v>
   <v>      -0.00069610      -0.17826363      -0.00014224 </v>
   <v>       0.00069610       0.17826363      -0.00014224 </v>
   <v>       0.00069610      -0.17826363      -0.00014224 </v>
   <v>      -0.00069610       0.17826363      -0.00014224 </v>
   <v>      -0.00069610      -0.17826363      -0.00014224 </v>
   <v>       0.00069610       0.17826363      -0.00014224 </v>
   <v>       0.00069610      -0.17826363      -0.00014224 </v>
   <v>       0.00546370      -0.01479044      -0.00121406 </v>
   <v>      -0.00546370       0.01479044      -0.00121406 </v>
   <v>       0.00546370       0.01479044      -0.00121406 </v>
   <v>      -0.00546370      -0.01479044      -0.00121406 </v>
   <v>       0.00546370      -0.01479044      -0.00121406 </v>
   <v>      -0.00546370       0.01479044      -0.00121406 </v>
   <v>       0.00546370       0.01479044      -0.00121406 </v>
   <v>      -0.00546370      -0.01479044      -0.00121406 </v>
   <v>       0.00546370      -0.01479044      -0.00121406 </v>
   <v>      -0.00546370       0.01479044      -0.00121406 </v>
   <v>       0.00546370       0.01479044      -0.00121406 </v>
   <v>      -0.00546370      -0.01479044      -0.00121406 </v>
   <v>       0.00546370      -0.01479044      -0.00121406 </v>
   <v>      -0.00546370       0.01479044      -0.00121406 </v>
   <v>       0.00546370       0.01479044      -0.00121406 </v>
   <v>      -0.00546370      -0.01479044      -0.00121406 </v>
  </varray>
  <varray name="stress" >
   <v>     -10.13390446       0.00000000       0.00000000 </v>
   <v>       0.00000000     -15.47025431       0.00000000 </v>
   <v>       0.00000000       0.00000000     -10.76614286 </v>
  </varray>
  <energy>
   <i name="e_fr_energy">   -328.94287039 </i>
   <i name="e_wo_entrp">   -328.94287039 </i>
   <i name="e_0_energy">      0.00000000 </i>
  </energy>
  <time name="totalsc"> 1522.63 1526.75</time>
 </calculation>
 <calculation>
  <scstep>
   <time name="dav">   82.16   82.44</time>
   <time name="total">   83.05   83.34</time>
   <energy>
    <i name="alphaZ">   1115.11963380 </i>
    <i name="ewald"> -31797.80669791 </i>
    <i name="hartreedc"> -13044.07114365 </i>
    <i name="XCdc">   1650.82133248 </i>
    <i name="pawpsdc">  44144.25371305 </i>
    <i name="pawaedc"> -43872.04966194 </i>
    <i name="eentropy">      0.00000000 </i>
    <i name="bandstr">  -4446.83429551 </i>
    <i name="atom">  45938.60578856 </i>
    <i name="e_fr_energy">   -311.96133113 </i>
    <i name="e_wo_entrp">   -311.96133113 </i>
    <i name="e_0_energy">   -311.96133113 </i>
   </energy>
  </scstep>
  <scstep>
   <time name="dav">   80.25   80.61</time>
   <time name="total">   81.12   81.48</time>
   <energy>
    <i name="e_fr_energy">   -310.56424379 </i>
    <i name="e_wo_entrp">   -310.56424379 </i>
    <i name="e_0_energy">   -310.56424379 </i>
   </energy>
  </scstep>
  <scstep>
   <time name="dav">   83.91   84.31</time>
   <time name="total">   84.75   85.15</time>
   <energy>
    <i name="e_fr_energy">   -310.32139041 </i>
    <i name="e_wo_entrp">   -310.32139041 </i>
    <i name="e_0_energy">   -310.32139041 </i>
   </energy>
  </scstep>
  <scstep>
   <time name="dav">   82.03   82.31</time>
   <time name="total">   82.89   83.17</time>
   <energy>
    <i name="e_fr_energy">   -310.29692859 </i>
    <i name="e_wo_entrp">   -310.29692859 </i>
    <i name="e_0_energy">   -310.29692859 </i>
   </energy>
  </scstep>
  <scstep>
   <time name="dav">   83.81   84.20</time>
   <time name="total">   84.65   85.05</time>
   <energy>
    <i name="e_fr_energy">   -310.29725206 </i>
    <i name="e_wo_entrp">   -310.29725206 </i>
    <i name="e_0_energy">   -310.29725206 </i>
   </energy>
  </scstep>
  <scstep>
   <time name="dav">   86.87   87.33</time>
   <time name="total">   87.71   88.18</time>
   <energy>
    <i name="e_fr_energy">   -310.29738042 </i>
    <i name="e_wo_entrp">   -310.29738042 </i>
    <i name="e_0_energy">   -310.29738042 </i>
   </energy>
  </scstep>
  <scstep>
   <time name="dav">   82.57   82.94</time>
   <time name="total">   83.41   83.79</time>
   <energy>
    <i name="e_fr_energy">   -310.29751321 </i>
    <i name="e_wo_entrp">   -310.29751321 </i>
    <i name="e_0_energy">   -310.29751321 </i>
   </energy>
  </scstep>
  <scstep>
   <time name="dav">   87.97   88.47</time>
   <time name="total">   88.82   89.32</time>
   <energy>
    <i name="e_fr_energy">   -310.29750115 </i>
    <i name="e_wo_entrp">   -310.29750115 </i>
    <i name="e_0_energy">   -310.29750115 </i>
   </energy>
  </scstep>
  <scstep>
   <time name="dav">   86.21   86.78</time>
   <time name="total">   87.05   87.62</time>
   <energy>
    <i name="e_fr_energy">   -310.29750405 </i>
    <i name="e_wo_entrp">   -310.29750405 </i>
    <i name="e_0_energy">   -310.29750405 </i>
   </energy>
  </scstep>
  <scstep>
   <time name="dav">   55.25   55.59</time>
   <time name="total">   55.32   55.66</time>
   <energy>
    <i name="alphaZ">   1115.11963380 </i>
    <i name="ewald"> -31797.80669791 </i>
    <i name="hartreedc"> -12844.87138390 </i>
    <i name="XCdc">   1641.20889155 </i>
    <i name="pawpsdc">  44516.33645255 </i>
    <i name="pawaedc"> -44246.75454530 </i>
    <i name="eentropy">      0.00000000 </i>
    <i name="bandstr">  -4632.13564364 </i>
    <i name="atom">  45938.60578856 </i>
    <i name="e_fr_energy">   -310.29750429 </i>
    <i name="e_wo_entrp">   -310.29750429 </i>
    <i name="e_0_energy">   -310.29750429 </i>
   </energy>
  </scstep>
  <structure>
   <crystal>
    <varray name="basis" >
     <v>      11.11471183       0.00000000       0.00000000 </v>
     <v>       0.00000000       9.49119388       0.00000000 </v>
     <v>       0.00000000       0.00000000      11.11460854 </v>
    </varray>
    <i name="volume">   1172.50100426 </i>
    <varray name="rec_basis" >
     <v>       0.08997084       0.00000000       0.00000000 </v>
     <v>       0.00000000       0.10536082       0.00000000 </v>
     <v>       0.00000000       0.00000000       0.08997168 </v>
    </varray>
   </crystal>
   <varray name="positions" >
    <v>       0.12535499       0.99983215       0.43689454 </v>
    <v>       0.37535499       0.00016785       0.43689454 </v>
    <v>       0.12464501       0.99983215       0.18689454 </v>
    <v>       0.37464501       0.00016785       0.18689454 </v>
    <v>       0.62535499       0.99983215       0.43689454 </v>
    <v>       0.87535499       0.00016785       0.43689454 </v>
    <v>       0.62464501       0.99983215       0.18689454 </v>
    <v>       0.87464501       0.00016785       0.18689454 </v>
    <v>       0.12535499       0.99983215       0.93689454 </v>
    <v>       0.37535499       0.00016785       0.93689454 </v>
    <v>       0.12464501       0.99983215       0.68689454 </v>
    <v>       0.37464501       0.00016785       0.68689454 </v>
    <v>       0.62535499       0.99983215       0.93689454 </v>
    <v>       0.87535499       0.00016785       0.93689454 </v>
    <v>       0.62464501       0.99983215       0.68689454 </v>
    <v>       0.87464501       0.00016785       0.68689454 </v>
    <v>       0.00010397       0.29514303       0.06280131 </v>
    <v>       0.25010397       0.70485697       0.06280131 </v>
    <v>       0.24989603       0.29514303       0.31280131 </v>
    <v>       0.49989603       0.70485697       0.31280131 </v>
    <v>       0.50010397       0.29514303       0.06280131 </v>
    <v>       0.75010397       0.70485697       0.06280131 </v>
    <v>       0.74989603       0.29514303       0.31280131 </v>
    <v>       0.99989603       0.70485697       0.31280131 </v>
    <v>       0.00010397       0.29514303       0.56280131 </v>
    <v>       0.25010397       0.70485697       0.56280131 </v>
    <v>       0.24989603       0.29514303       0.81280131 </v>
    <v>       0.49989603       0.70485697       0.81280131 </v>
    <v>       0.50010397       0.29514303       0.56280131 </v>
    <v>       0.75010397       0.70485697       0.56280131 </v>
    <v>       0.74989603       0.29514303       0.81280131 </v>
    <v>       0.99989603       0.70485697       0.81280131 </v>
    <v>       0.25004700       0.32766820       0.06285939 </v>
    <v>       0.00004700       0.67233180       0.06285939 </v>
    <v>       0.49995300       0.32766820       0.31285939 </v>
    <v>       0.24995300       0.67233180       0.31285939 </v>
    <v>       0.75004700       0.32766820       0.06285939 </v>
    <v>       0.50004700       0.67233180       0.06285939 </v>
    <v>       0.99995300       0.32766820       0.31285939 </v>
    <v>       0.74995300       0.67233180       0.31285939 </v>
    <v>       0.25004700       0.32766820       0.56285939 </v>
    <v>       0.00004700       0.67233180       0.56285939 </v>
    <v>       0.49995300       0.32766820       0.81285939 </v>
    <v>       0.24995300       0.67233180       0.81285939 </v>
    <v>       0.75004700       0.32766820       0.56285939 </v>
    <v>       0.50004700       0.67233180       0.56285939 </v>
    <v>       0.99995300       0.32766820       0.81285939 </v>
    <v>       0.74995300       0.67233180       0.81285939 </v>
    <v>       0.49989358       0.07790548       0.06245476 </v>
    <v>       0.00010642       0.92209452       0.31245476 </v>
    <v>       0.24989358       0.92209452       0.06245476 </v>
    <v>       0.25010642       0.07790548       0.31245476 </v>
    <v>       0.99989358       0.07790548       0.06245476 </v>
    <v>       0.50010642       0.92209452       0.31245476 </v>
    <v>       0.74989358       0.92209452       0.06245476 </v>
    <v>       0.75010642       0.07790548       0.31245476 </v>
    <v>       0.49989358       0.07790548       0.56245476 </v>
    <v>       0.00010642       0.92209452       0.81245476 </v>
    <v>       0.24989358       0.92209452       0.56245476 </v>
    <v>       0.25010642       0.07790548       0.81245476 </v>
    <v>       0.99989358       0.07790548       0.56245476 </v>
    <v>       0.50010642       0.92209452       0.81245476 </v>
    <v>       0.74989358       0.92209452       0.56245476 </v>
    <v>       0.75010642       0.07790548       0.81245476 </v>
   </varray>
  </structure>
  <varray name="forces" >
   <v>      -0.00716176       0.00104691       0.00605036 </v>
   <v>      -0.00716176      -0.00104691       0.00605036 </v>
   <v>       0.00716176       0.00104691       0.00605036 </v>
   <v>       0.00716176      -0.00104691       0.00605036 </v>
   <v>      -0.00716176       0.00104691       0.00605036 </v>
   <v>      -0.00716176      -0.00104691       0.00605036 </v>
   <v>       0.00716176       0.00104691       0.00605036 </v>
   <v>       0.00716176      -0.00104691       0.00605036 </v>
   <v>      -0.00716176       0.00104691       0.00605036 </v>
   <v>      -0.00716176      -0.00104691       0.00605036 </v>
   <v>       0.00716176       0.00104691       0.00605036 </v>
   <v>       0.00716176      -0.00104691       0.00605036 </v>
   <v>      -0.00716176       0.00104691       0.00605036 </v>
   <v>      -0.00716176      -0.00104691       0.00605036 </v>
   <v>       0.00716176       0.00104691       0.00605036 </v>
   <v>       0.00716176      -0.00104691       0.00605036 </v>
   <v>      -0.00453313       0.31055850      -0.00383199 </v>
   <v>      -0.00453313      -0.31055850      -0.00383199 </v>
   <v>       0.00453313       0.31055850      -0.00383199 </v>
   <v>       0.00453313      -0.31055850      -0.00383199 </v>
   <v>      -0.00453313       0.31055850      -0.00383199 </v>
   <v>      -0.00453313      -0.31055850      -0.00383199 </v>
   <v>       0.00453313       0.31055850      -0.00383199 </v>
   <v>       0.00453313      -0.31055850      -0.00383199 </v>
   <v>      -0.00453313       0.31055850      -0.00383199 </v>
   <v>      -0.00453313      -0.31055850      -0.00383199 </v>
   <v>       0.00453313       0.31055850      -0.00383199 </v>
   <v>       0.00453313      -0.31055850      -0.00383199 </v>
   <v>      -0.00453313       0.31055850      -0.00383199 </v>
   <v>      -0.00453313      -0.31055850      -0.00383199 </v>
   <v>       0.00453313       0.31055850      -0.00383199 </v>
   <v>       0.00453313      -0.31055850      -0.00383199 </v>
   <v>      -0.00014702       0.17742640      -0.00017655 </v>
   <v>      -0.00014702      -0.17742640      -0.00017655 </v>
   <v>       0.00014702       0.17742640      -0.00017655 </v>
   <v>       0.00014702      -0.17742640      -0.00017655 </v>
   <v>      -0.00014702       0.17742640      -0.00017655 </v>
   <v>      -0.00014702      -0.17742640      -0.00017655 </v>
   <v>       0.00014702       0.17742640      -0.00017655 </v>
   <v>       0.00014702      -0.17742640      -0.00017655 </v>
   <v>      -0.00014702       0.17742640      -0.00017655 </v>
   <v>      -0.00014702      -0.17742640      -0.00017655 </v>
   <v>       0.00014702       0.17742640      -0.00017655 </v>
   <v>       0.00014702      -0.17742640      -0.00017655 </v>
   <v>      -0.00014702       0.17742640      -0.00017655 </v>
   <v>      -0.00014702      -0.17742640      -0.00017655 </v>
   <v>       0.00014702       0.17742640      -0.00017655 </v>
   <v>       0.00014702      -0.17742640      -0.00017655 </v>
   <v>       0.00429799      -0.30440516      -0.00204182 </v>
   <v>      -0.00429799       0.30440516      -0.00204182 </v>
   <v>       0.00429799       0.30440516      -0.00204182 </v>
   <v>      -0.00429799      -0.30440516      -0.00204182 </v>
   <v>       0.00429799      -0.30440516      -0.00204182 </v>
   <v>      -0.00429799       0.30440516      -0.00204182 </v>
   <v>       0.00429799       0.30440516      -0.00204182 </v>
   <v>      -0.00429799      -0.30440516      -0.00204182 </v>
   <v>       0.00429799      -0.30440516      -0.00204182 </v>
   <v>      -0.00429799       0.30440516      -0.00204182 </v>
   <v>       0.00429799       0.30440516      -0.00204182 </v>
   <v>      -0.00429799      -0.30440516      -0.00204182 </v>
   <v>       0.00429799      -0.30440516      -0.00204182 </v>
   <v>      -0.00429799       0.30440516      -0.00204182 </v>
   <v>       0.00429799       0.30440516      -0.00204182 </v>
   <v>      -0.00429799      -0.30440516      -0.00204182 </v>
  </varray>
  <varray name="stress" >
   <v>       2.41326796       0.00000000       0.00000000 </v>
   <v>       0.00000000       2.91786806       0.00000000 </v>
   <v>       0.00000000       0.00000000       2.41716398 </v>
  </varray>
  <energy>
   <i name="e_fr_energy">   -329.04306578 </i>
   <i name="e_wo_entrp">   -329.04306578 </i>
   <i name="e_0_energy">      0.00000000 </i>
  </energy>
  <time name="totalsc">  928.93  933.54</time>
 </calculation>
 <calculation>
  <scstep>
   <time name="dav">   82.75   83.18</time>
   <time name="total">   83.58   84.02</time>
   <energy>
    <i name="alphaZ">   1113.70461505 </i>
    <i name="ewald"> -31783.59437599 </i>
    <i name="hartreedc"> -12840.11400091 </i>
    <i name="XCdc">   1640.45131054 </i>
    <i name="pawpsdc">  44516.03168775 </i>
    <i name="pawaedc"> -44246.45343864 </i>
    <i name="eentropy">      0.00000000 </i>
    <i name="bandstr">  -4648.95366765 </i>
    <i name="atom">  45938.60578856 </i>
    <i name="e_fr_energy">   -310.32208129 </i>
    <i name="e_wo_entrp">   -310.32208129 </i>
    <i name="e_0_energy">   -310.32208129 </i>
   </energy>
  </scstep>
  <scstep>
   <time name="dav">   77.62   78.17</time>
   <time name="total">   78.46   79.02</time>
   <energy>
    <i name="e_fr_energy">   -310.31679919 </i>
    <i name="e_wo_entrp">   -310.31679919 </i>
    <i name="e_0_energy">   -310.31679919 </i>
   </energy>
  </scstep>
  <scstep>
   <time name="dav">   83.96   84.31</time>
   <time name="total">   84.80   85.16</time>
   <energy>
    <i name="e_fr_energy">   -310.31588830 </i>
    <i name="e_wo_entrp">   -310.31588830 </i>
    <i name="e_0_energy">   -310.31588830 </i>
   </energy>
  </scstep>
  <scstep>
   <time name="dav">   82.13   82.96</time>
   <time name="total">   82.97   83.81</time>
   <energy>
    <i name="e_fr_energy">   -310.31577022 </i>
    <i name="e_wo_entrp">   -310.31577022 </i>
    <i name="e_0_energy">   -310.31577022 </i>
   </energy>
  </scstep>
  <scstep>
   <time name="dav">   83.32   83.91</time>
   <time name="total">   84.16   84.76</time>
   <energy>
    <i name="e_fr_energy">   -310.31575632 </i>
    <i name="e_wo_entrp">   -310.31575632 </i>
    <i name="e_0_energy">   -310.31575632 </i>
   </energy>
  </scstep>
  <scstep>
   <time name="dav">   78.16   78.58</time>
   <time name="total">   79.01   79.43</time>
   <energy>
    <i name="e_fr_energy">   -310.31573872 </i>
    <i name="e_wo_entrp">   -310.31573872 </i>
    <i name="e_0_energy">   -310.31573872 </i>
   </energy>
  </scstep>
  <scstep>
   <time name="dav">   69.57   69.99</time>
   <time name="total">   70.41   70.84</time>
   <energy>
    <i name="e_fr_energy">   -310.31573202 </i>
    <i name="e_wo_entrp">   -310.31573202 </i>
    <i name="e_0_energy">   -310.31573202 </i>
   </energy>
  </scstep>
  <scstep>
   <time name="dav">   44.07   44.27</time>
   <time name="total">   44.14   44.35</time>
   <energy>
    <i name="alphaZ">   1113.70461505 </i>
    <i name="ewald"> -31783.59437599 </i>
    <i name="hartreedc"> -12852.36784062 </i>
    <i name="XCdc">   1641.04307648 </i>
    <i name="pawpsdc">  44492.32474034 </i>
    <i name="pawaedc"> -44222.57791649 </i>
    <i name="eentropy">      0.00000000 </i>
    <i name="bandstr">  -4637.45382022 </i>
    <i name="atom">  45938.60578856 </i>
    <i name="e_fr_energy">   -310.31573289 </i>
    <i name="e_wo_entrp">   -310.31573289 </i>
    <i name="e_0_energy">   -310.31573289 </i>
   </energy>
  </scstep>
  <structure>
   <crystal>
    <varray name="basis" >
     <v>      11.11863949       0.00000000       0.00000000 </v>
     <v>       0.00000000       9.49632949       0.00000000 </v>
     <v>       0.00000000       0.00000000      11.11878270 </v>
    </varray>
    <i name="volume">   1173.99072683 </i>
    <varray name="rec_basis" >
     <v>       0.08993906       0.00000000       0.00000000 </v>
     <v>       0.00000000       0.10530384       0.00000000 </v>
     <v>       0.00000000       0.00000000       0.08993790 </v>
    </varray>
   </crystal>
   <varray name="positions" >
    <v>       0.12535715       0.99983202       0.43689302 </v>
    <v>       0.37535715       0.00016798       0.43689302 </v>
    <v>       0.12464285       0.99983202       0.18689302 </v>
    <v>       0.37464285       0.00016798       0.18689302 </v>
    <v>       0.62535715       0.99983202       0.43689302 </v>
    <v>       0.87535715       0.00016798       0.43689302 </v>
    <v>       0.62464285       0.99983202       0.18689302 </v>
    <v>       0.87464285       0.00016798       0.18689302 </v>
    <v>       0.12535715       0.99983202       0.93689302 </v>
    <v>       0.37535715       0.00016798       0.93689302 </v>
    <v>       0.12464285       0.99983202       0.68689302 </v>
    <v>       0.37464285       0.00016798       0.68689302 </v>
    <v>       0.62535715       0.99983202       0.93689302 </v>
    <v>       0.87535715       0.00016798       0.93689302 </v>
    <v>       0.62464285       0.99983202       0.68689302 </v>
    <v>       0.87464285       0.00016798       0.68689302 </v>
    <v>       0.00010558       0.29514594       0.06280247 </v>
    <v>       0.25010558       0.70485406       0.06280247 </v>
    <v>       0.24989442       0.29514594       0.31280247 </v>
    <v>       0.49989442       0.70485406       0.31280247 </v>
    <v>       0.50010558       0.29514594       0.06280247 </v>
    <v>       0.75010558       0.70485406       0.06280247 </v>
    <v>       0.74989442       0.29514594       0.31280247 </v>
    <v>       0.99989442       0.70485406       0.31280247 </v>
    <v>       0.00010558       0.29514594       0.56280247 </v>
    <v>       0.25010558       0.70485406       0.56280247 </v>
    <v>       0.24989442       0.29514594       0.81280247 </v>
    <v>       0.49989442       0.70485406       0.81280247 </v>
    <v>       0.50010558       0.29514594       0.56280247 </v>
    <v>       0.75010558       0.70485406       0.56280247 </v>
    <v>       0.74989442       0.29514594       0.81280247 </v>
    <v>       0.99989442       0.70485406       0.81280247 </v>
    <v>       0.25004718       0.32761241       0.06285942 </v>
    <v>       0.00004718       0.67238759       0.06285942 </v>
    <v>       0.49995282       0.32761241       0.31285942 </v>
    <v>       0.24995282       0.67238759       0.31285942 </v>
    <v>       0.75004718       0.32761241       0.06285942 </v>
    <v>       0.50004718       0.67238759       0.06285942 </v>
    <v>       0.99995282       0.32761241       0.31285942 </v>
    <v>       0.74995282       0.67238759       0.31285942 </v>
    <v>       0.25004718       0.32761241       0.56285942 </v>
    <v>       0.00004718       0.67238759       0.56285942 </v>
    <v>       0.49995282       0.32761241       0.81285942 </v>
    <v>       0.24995282       0.67238759       0.81285942 </v>
    <v>       0.75004718       0.32761241       0.56285942 </v>
    <v>       0.50004718       0.67238759       0.56285942 </v>
    <v>       0.99995282       0.32761241       0.81285942 </v>
    <v>       0.74995282       0.67238759       0.81285942 </v>
    <v>       0.49989212       0.07791011       0.06245509 </v>
    <v>       0.00010788       0.92208989       0.31245509 </v>
    <v>       0.24989212       0.92208989       0.06245509 </v>
    <v>       0.25010788       0.07791011       0.31245509 </v>
    <v>       0.99989212       0.07791011       0.06245509 </v>
    <v>       0.50010788       0.92208989       0.31245509 </v>
    <v>       0.74989212       0.92208989       0.06245509 </v>
    <v>       0.75010788       0.07791011       0.31245509 </v>
    <v>       0.49989212       0.07791011       0.56245509 </v>
    <v>       0.00010788       0.92208989       0.81245509 </v>
    <v>       0.24989212       0.92208989       0.56245509 </v>
    <v>       0.25010788       0.07791011       0.81245509 </v>
    <v>       0.99989212       0.07791011       0.56245509 </v>
    <v>       0.50010788       0.92208989       0.81245509 </v>
    <v>       0.74989212       0.92208989       0.56245509 </v>
    <v>       0.75010788       0.07791011       0.81245509 </v>
   </varray>
  </structure>
  <varray name="forces" >
   <v>      -0.00721287       0.00100821       0.00603282 </v>
   <v>      -0.00721287      -0.00100821       0.00603282 </v>
   <v>       0.00721287       0.00100821       0.00603282 </v>
   <v>       0.00721287      -0.00100821       0.00603282 </v>
   <v>      -0.00721287       0.00100821       0.00603282 </v>
   <v>      -0.00721287      -0.00100821       0.00603282 </v>
   <v>       0.00721287       0.00100821       0.00603282 </v>
   <v>       0.00721287      -0.00100821       0.00603282 </v>
   <v>      -0.00721287       0.00100821       0.00603282 </v>
   <v>      -0.00721287      -0.00100821       0.00603282 </v>
   <v>       0.00721287       0.00100821       0.00603282 </v>
   <v>       0.00721287      -0.00100821       0.00603282 </v>
   <v>      -0.00721287       0.00100821       0.00603282 </v>
   <v>      -0.00721287      -0.00100821       0.00603282 </v>
   <v>       0.00721287       0.00100821       0.00603282 </v>
   <v>       0.00721287      -0.00100821       0.00603282 </v>
   <v>      -0.00466760       0.29009181      -0.00388952 </v>
   <v>      -0.00466760      -0.29009181      -0.00388952 </v>
   <v>       0.00466760       0.29009181      -0.00388952 </v>
   <v>       0.00466760      -0.29009181      -0.00388952 </v>
   <v>      -0.00466760       0.29009181      -0.00388952 </v>
   <v>      -0.00466760      -0.29009181      -0.00388952 </v>
   <v>       0.00466760       0.29009181      -0.00388952 </v>
   <v>       0.00466760      -0.29009181      -0.00388952 </v>
   <v>      -0.00466760       0.29009181      -0.00388952 </v>
   <v>      -0.00466760      -0.29009181      -0.00388952 </v>
   <v>       0.00466760       0.29009181      -0.00388952 </v>
   <v>       0.00466760      -0.29009181      -0.00388952 </v>
   <v>      -0.00466760       0.29009181      -0.00388952 </v>
   <v>      -0.00466760      -0.29009181      -0.00388952 </v>
   <v>       0.00466760       0.29009181      -0.00388952 </v>
   <v>       0.00466760      -0.29009181      -0.00388952 </v>
   <v>      -0.00017762       0.17757706      -0.00016634 </v>
   <v>      -0.00017762      -0.17757706      -0.00016634 </v>
   <v>       0.00017762       0.17757706      -0.00016634 </v>
   <v>       0.00017762      -0.17757706      -0.00016634 </v>
   <v>      -0.00017762       0.17757706      -0.00016634 </v>
   <v>      -0.00017762      -0.17757706      -0.00016634 </v>
   <v>       0.00017762       0.17757706      -0.00016634 </v>
   <v>       0.00017762      -0.17757706      -0.00016634 </v>
   <v>      -0.00017762       0.17757706      -0.00016634 </v>
   <v>      -0.00017762      -0.17757706      -0.00016634 </v>
   <v>       0.00017762       0.17757706      -0.00016634 </v>
   <v>       0.00017762      -0.17757706      -0.00016634 </v>
   <v>      -0.00017762       0.17757706      -0.00016634 </v>
   <v>      -0.00017762      -0.17757706      -0.00016634 </v>
   <v>       0.00017762       0.17757706      -0.00016634 </v>
   <v>       0.00017762      -0.17757706      -0.00016634 </v>
   <v>       0.00437136      -0.28578709      -0.00197695 </v>
   <v>      -0.00437136       0.28578709      -0.00197695 </v>
   <v>       0.00437136       0.28578709      -0.00197695 </v>
   <v>      -0.00437136      -0.28578709      -0.00197695 </v>
   <v>       0.00437136      -0.28578709      -0.00197695 </v>
   <v>      -0.00437136       0.28578709      -0.00197695 </v>
   <v>       0.00437136       0.28578709      -0.00197695 </v>
   <v>      -0.00437136      -0.28578709      -0.00197695 </v>
   <v>       0.00437136      -0.28578709      -0.00197695 </v>
   <v>      -0.00437136       0.28578709      -0.00197695 </v>
   <v>       0.00437136       0.28578709      -0.00197695 </v>
   <v>      -0.00437136      -0.28578709      -0.00197695 </v>
   <v>       0.00437136      -0.28578709      -0.00197695 </v>
   <v>      -0.00437136       0.28578709      -0.00197695 </v>
   <v>       0.00437136       0.28578709      -0.00197695 </v>
   <v>      -0.00437136      -0.28578709      -0.00197695 </v>
  </varray>
  <varray name="stress" >
   <v>       1.60289143       0.00000000       0.00000000 </v>
   <v>       0.00000000       1.69187326       0.00000000 </v>
   <v>       0.00000000       0.00000000       1.56440372 </v>
  </varray>
  <energy>
   <i name="e_fr_energy">   -329.04357989 </i>
   <i name="e_wo_entrp">   -329.04357989 </i>
   <i name="e_0_energy">      0.00000000 </i>
  </energy>
  <time name="totalsc">  717.63  722.19</time>
 </calculation>
 <calculation>
  <scstep>
   <time name="dav">   75.62   76.20</time>
   <time name="total">   76.46   77.05</time>
   <energy>
    <i name="alphaZ">   1124.39182655 </i>
    <i name="ewald"> -31976.56938115 </i>
    <i name="hartreedc"> -12810.30503586 </i>
    <i name="XCdc">   1646.26587063 </i>
    <i name="pawpsdc">  44492.40587038 </i>
    <i name="pawaedc"> -44222.66201873 </i>
    <i name="eentropy">      0.00000000 </i>
    <i name="bandstr">  -4502.68609136 </i>
    <i name="atom">  45938.60578856 </i>
    <i name="e_fr_energy">   -310.55317098 </i>
    <i name="e_wo_entrp">   -310.55317098 </i>
    <i name="e_0_energy">   -310.55317098 </i>
   </energy>
  </scstep>
  <scstep>
   <time name="dav">   75.37   75.81</time>
   <time name="total">   76.21   76.65</time>
   <energy>
    <i name="e_fr_energy">   -310.31191766 </i>
    <i name="e_wo_entrp">   -310.31191766 </i>
    <i name="e_0_energy">   -310.31191766 </i>
   </energy>
  </scstep>
  <scstep>
   <time name="dav">   83.64   84.30</time>
   <time name="total">   84.48   85.14</time>
   <energy>
    <i name="e_fr_energy">   -310.24711504 </i>
    <i name="e_wo_entrp">   -310.24711504 </i>
    <i name="e_0_energy">   -310.24711504 </i>
   </energy>
  </scstep>
  <scstep>
   <time name="dav">   88.38   89.05</time>
   <time name="total">   89.22   89.90</time>
   <energy>
    <i name="e_fr_energy">   -310.24358995 </i>
    <i name="e_wo_entrp">   -310.24358995 </i>
    <i name="e_0_energy">   -310.24358995 </i>
   </energy>
  </scstep>
  <scstep>
   <time name="dav">   78.20   78.48</time>
   <time name="total">   79.07   79.36</time>
   <energy>
    <i name="e_fr_energy">   -310.24397762 </i>
    <i name="e_wo_entrp">   -310.24397762 </i>
    <i name="e_0_energy">   -310.24397762 </i>
   </energy>
  </scstep>
  <scstep>
   <time name="dav">   87.13   87.63</time>
   <time name="total">   87.97   88.47</time>
   <energy>
    <i name="e_fr_energy">   -310.24391570 </i>
    <i name="e_wo_entrp">   -310.24391570 </i>
    <i name="e_0_energy">   -310.24391570 </i>
   </energy>
  </scstep>
  <scstep>
   <time name="dav">   78.69   79.10</time>
   <time name="total">   79.53   79.95</time>
   <energy>
    <i name="e_fr_energy">   -310.24398131 </i>
    <i name="e_wo_entrp">   -310.24398131 </i>
    <i name="e_0_energy">   -310.24398131 </i>
   </energy>
  </scstep>
  <scstep>
   <time name="dav">   91.72   92.29</time>
   <time name="total">   92.56   93.14</time>
   <energy>
    <i name="e_fr_energy">   -310.24399848 </i>
    <i name="e_wo_entrp">   -310.24399848 </i>
    <i name="e_0_energy">   -310.24399848 </i>
   </energy>
  </scstep>
  <scstep>
   <time name="dav">   64.39   65.32</time>
   <time name="total">   65.23   66.17</time>
   <energy>
    <i name="e_fr_energy">   -310.24400134 </i>
    <i name="e_wo_entrp">   -310.24400134 </i>
    <i name="e_0_energy">   -310.24400134 </i>
   </energy>
  </scstep>
  <scstep>
   <time name="dav">   46.10   46.48</time>
   <time name="total">   46.18   46.56</time>
   <energy>
    <i name="alphaZ">   1124.39182655 </i>
    <i name="ewald"> -31976.56938115 </i>
    <i name="hartreedc"> -12713.44193908 </i>
    <i name="XCdc">   1641.52323047 </i>
    <i name="pawpsdc">  44549.75517533 </i>
    <i name="pawaedc"> -44279.67554713 </i>
    <i name="eentropy">      0.00000000 </i>
    <i name="bandstr">  -4594.83315409 </i>
    <i name="atom">  45938.60578856 </i>
    <i name="e_fr_energy">   -310.24400054 </i>
    <i name="e_wo_entrp">   -310.24400054 </i>
    <i name="e_0_energy">   -310.24400054 </i>
   </energy>
  </scstep>
  <structure>
   <crystal>
    <varray name="basis" >
     <v>      11.09033255       0.00000000       0.00000000 </v>
     <v>       0.00000000       9.45623471       0.00000000 </v>
     <v>       0.00000000       0.00000000      11.08802494 </v>
    </varray>
    <i name="volume">   1162.83208364 </i>
    <varray name="rec_basis" >
     <v>       0.09016862       0.00000000       0.00000000 </v>
     <v>       0.00000000       0.10575034       0.00000000 </v>
     <v>       0.00000000       0.00000000       0.09018739 </v>
    </varray>
   </crystal>
   <varray name="positions" >
    <v>       0.12531187       0.99983738       0.43692817 </v>
    <v>       0.37531187       0.00016262       0.43692817 </v>
    <v>       0.12468813       0.99983738       0.18692817 </v>
    <v>       0.37468813       0.00016262       0.18692817 </v>
    <v>       0.62531187       0.99983738       0.43692817 </v>
    <v>       0.87531187       0.00016262       0.43692817 </v>
    <v>       0.62468813       0.99983738       0.18692817 </v>
    <v>       0.87468813       0.00016262       0.18692817 </v>
    <v>       0.12531187       0.99983738       0.93692817 </v>
    <v>       0.37531187       0.00016262       0.93692817 </v>
    <v>       0.12468813       0.99983738       0.68692817 </v>
    <v>       0.37468813       0.00016262       0.68692817 </v>
    <v>       0.62531187       0.99983738       0.93692817 </v>
    <v>       0.87531187       0.00016262       0.93692817 </v>
    <v>       0.62468813       0.99983738       0.68692817 </v>
    <v>       0.87468813       0.00016262       0.68692817 </v>
    <v>       0.00007434       0.29630479       0.06277816 </v>
    <v>       0.25007434       0.70369521       0.06277816 </v>
    <v>       0.24992566       0.29630479       0.31277816 </v>
    <v>       0.49992566       0.70369521       0.31277816 </v>
    <v>       0.50007434       0.29630479       0.06277816 </v>
    <v>       0.75007434       0.70369521       0.06277816 </v>
    <v>       0.74992566       0.29630479       0.31277816 </v>
    <v>       0.99992566       0.70369521       0.31277816 </v>
    <v>       0.00007434       0.29630479       0.56277816 </v>
    <v>       0.25007434       0.70369521       0.56277816 </v>
    <v>       0.24992566       0.29630479       0.81277816 </v>
    <v>       0.49992566       0.70369521       0.81277816 </v>
    <v>       0.50007434       0.29630479       0.56277816 </v>
    <v>       0.75007434       0.70369521       0.56277816 </v>
    <v>       0.74992566       0.29630479       0.81277816 </v>
    <v>       0.99992566       0.70369521       0.81277816 </v>
    <v>       0.25004484       0.32885544       0.06285849 </v>
    <v>       0.00004484       0.67114456       0.06285849 </v>
    <v>       0.49995516       0.32885544       0.31285849 </v>
    <v>       0.24995516       0.67114456       0.31285849 </v>
    <v>       0.75004484       0.32885544       0.06285849 </v>
    <v>       0.50004484       0.67114456       0.06285849 </v>
    <v>       0.99995516       0.32885544       0.31285849 </v>
    <v>       0.74995516       0.67114456       0.31285849 </v>
    <v>       0.25004484       0.32885544       0.56285849 </v>
    <v>       0.00004484       0.67114456       0.56285849 </v>
    <v>       0.49995516       0.32885544       0.81285849 </v>
    <v>       0.24995516       0.67114456       0.81285849 </v>
    <v>       0.75004484       0.32885544       0.56285849 </v>
    <v>       0.50004484       0.67114456       0.56285849 </v>
    <v>       0.99995516       0.32885544       0.81285849 </v>
    <v>       0.74995516       0.67114456       0.81285849 </v>
    <v>       0.49992092       0.07669891       0.06244518 </v>
    <v>       0.00007908       0.92330109       0.31244518 </v>
    <v>       0.24992092       0.92330109       0.06244518 </v>
    <v>       0.25007908       0.07669891       0.31244518 </v>
    <v>       0.99992092       0.07669891       0.06244518 </v>
    <v>       0.50007908       0.92330109       0.31244518 </v>
    <v>       0.74992092       0.92330109       0.06244518 </v>
    <v>       0.75007908       0.07669891       0.31244518 </v>
    <v>       0.49992092       0.07669891       0.56244518 </v>
    <v>       0.00007908       0.92330109       0.81244518 </v>
    <v>       0.24992092       0.92330109       0.56244518 </v>
    <v>       0.25007908       0.07669891       0.81244518 </v>
    <v>       0.99992092       0.07669891       0.56244518 </v>
    <v>       0.50007908       0.92330109       0.81244518 </v>
    <v>       0.74992092       0.92330109       0.56244518 </v>
    <v>       0.75007908       0.07669891       0.81244518 </v>
   </varray>
  </structure>
  <varray name="forces" >
   <v>      -0.00642574       0.00167267       0.00622396 </v>
   <v>      -0.00642574      -0.00167267       0.00622396 </v>
   <v>       0.00642574       0.00167267       0.00622396 </v>
   <v>       0.00642574      -0.00167267       0.00622396 </v>
   <v>      -0.00642574       0.00167267       0.00622396 </v>
   <v>      -0.00642574      -0.00167267       0.00622396 </v>
   <v>       0.00642574       0.00167267       0.00622396 </v>
   <v>       0.00642574      -0.00167267       0.00622396 </v>
   <v>      -0.00642574       0.00167267       0.00622396 </v>
   <v>      -0.00642574      -0.00167267       0.00622396 </v>
   <v>       0.00642574       0.00167267       0.00622396 </v>
   <v>       0.00642574      -0.00167267       0.00622396 </v>
   <v>      -0.00642574       0.00167267       0.00622396 </v>
   <v>      -0.00642574      -0.00167267       0.00622396 </v>
   <v>       0.00642574       0.00167267       0.00622396 </v>
   <v>       0.00642574      -0.00167267       0.00622396 </v>
   <v>      -0.00298010       0.04631252      -0.00370507 </v>
   <v>      -0.00298010      -0.04631252      -0.00370507 </v>
   <v>       0.00298010       0.04631252      -0.00370507 </v>
   <v>       0.00298010      -0.04631252      -0.00370507 </v>
   <v>      -0.00298010       0.04631252      -0.00370507 </v>
   <v>      -0.00298010      -0.04631252      -0.00370507 </v>
   <v>       0.00298010       0.04631252      -0.00370507 </v>
   <v>       0.00298010      -0.04631252      -0.00370507 </v>
   <v>      -0.00298010       0.04631252      -0.00370507 </v>
   <v>      -0.00298010      -0.04631252      -0.00370507 </v>
   <v>       0.00298010       0.04631252      -0.00370507 </v>
   <v>       0.00298010      -0.04631252      -0.00370507 </v>
   <v>      -0.00298010       0.04631252      -0.00370507 </v>
   <v>      -0.00298010      -0.04631252      -0.00370507 </v>
   <v>       0.00298010       0.04631252      -0.00370507 </v>
   <v>       0.00298010      -0.04631252      -0.00370507 </v>
   <v>      -0.00012124       0.19750541      -0.00029083 </v>
   <v>      -0.00012124      -0.19750541      -0.00029083 </v>
   <v>       0.00012124       0.19750541      -0.00029083 </v>
   <v>       0.00012124      -0.19750541      -0.00029083 </v>
   <v>      -0.00012124       0.19750541      -0.00029083 </v>
   <v>      -0.00012124      -0.19750541      -0.00029083 </v>
   <v>       0.00012124       0.19750541      -0.00029083 </v>
   <v>       0.00012124      -0.19750541      -0.00029083 </v>
   <v>      -0.00012124       0.19750541      -0.00029083 </v>
   <v>      -0.00012124      -0.19750541      -0.00029083 </v>
   <v>       0.00012124       0.19750541      -0.00029083 </v>
   <v>       0.00012124      -0.19750541      -0.00029083 </v>
   <v>      -0.00012124       0.19750541      -0.00029083 </v>
   <v>      -0.00012124      -0.19750541      -0.00029083 </v>
   <v>       0.00012124       0.19750541      -0.00029083 </v>
   <v>       0.00012124      -0.19750541      -0.00029083 </v>
   <v>       0.00326285      -0.01776242      -0.00222805 </v>
   <v>      -0.00326285       0.01776242      -0.00222805 </v>
   <v>       0.00326285       0.01776242      -0.00222805 </v>
   <v>      -0.00326285      -0.01776242      -0.00222805 </v>
   <v>       0.00326285      -0.01776242      -0.00222805 </v>
   <v>      -0.00326285       0.01776242      -0.00222805 </v>
   <v>       0.00326285       0.01776242      -0.00222805 </v>
   <v>      -0.00326285      -0.01776242      -0.00222805 </v>
   <v>       0.00326285      -0.01776242      -0.00222805 </v>
   <v>      -0.00326285       0.01776242      -0.00222805 </v>
   <v>       0.00326285       0.01776242      -0.00222805 </v>
[...]
      </set>
     </set>
    </set>
   </array>
  </eigenvalues>
  <separator name="orbital magnetization" >
   <v name="MAGDIPOLOUT">      0.00000000      0.00000000      0.00000000</v>
  </separator>
  <dos>
   <i name="efermi">      4.80779468 </i>
   <total>
    <array>
     <dimension dim="1">gridpoints</dimension>
     <dimension dim="2">spin</dimension>
     <field>energy</field>
     <field>total</field>
     <field>integrated</field>
     <set>
      <set comment="spin 1">
       <r>   -41.9109     0.0000     0.0000 </r>
       <r>   -41.7204     0.0000     0.0000 </r>
       <r>   -41.5299     0.0000     0.0000 </r>
       <r>   -41.3394     0.0000     0.0000 </r>
       <r>   -41.1489     0.0000     0.0000 </r>
       <r>   -40.9584     0.0000     0.0000 </r>
       <r>   -40.7680     0.0000     0.0000 </r>
       <r>   -40.5775     0.0000     0.0000 </r>
       <r>   -40.3870     0.0000     0.0000 </r>
       <r>   -40.1965     0.0000     0.0000 </r>
       <r>   -40.0060     0.0000     0.0000 </r>
       <r>   -39.8155     0.0000     0.0000 </r>
       <r>   -39.6250     0.0000     0.0000 </r>
       <r>   -39.4345     0.0000     0.0000 </r>
       <r>   -39.2440     0.0000    32.0000 </r>
       <r>   -39.0535     0.0000    32.0000 </r>
       <r>   -38.8630     0.0000    32.0000 </r>
       <r>   -38.6725     0.0000    32.0000 </r>
       <r>   -38.4820     0.0000    32.0000 </r>
       <r>   -38.2915     0.0000    32.0000 </r>
       <r>   -38.1010     0.0000    32.0000 </r>
       <r>   -37.9105     0.0000    32.0000 </r>
       <r>   -37.7200     0.0000    32.0000 </r>
       <r>   -37.5296     0.0000    32.0000 </r>
       <r>   -37.3391     0.0000    32.0000 </r>
       <r>   -37.1486     0.0000    32.0000 </r>
       <r>   -36.9581     0.0000    32.0000 </r>
       <r>   -36.7676     0.0000    32.0000 </r>
       <r>   -36.5771     0.0000    32.0000 </r>
       <r>   -36.3866     0.0000    32.0000 </r>
       <r>   -36.1961     0.0000    32.0000 </r>
       <r>   -36.0056     0.0000    32.0000 </r>
       <r>   -35.8151     0.0000    32.0000 </r>
       <r>   -35.6246     0.0000    32.0000 </r>
       <r>   -35.4341     0.0000    32.0000 </r>
       <r>   -35.2436     0.0000    32.0000 </r>
       <r>   -35.0531     0.0000    32.0000 </r>
       <r>   -34.8626     0.0000    32.0000 </r>
       <r>   -34.6721     0.0000    32.0000 </r>
       <r>   -34.4816     0.0000    32.0000 </r>
       <r>   -34.2911     0.0000    32.0000 </r>
       <r>   -34.1007     0.0000    32.0000 </r>
       <r>   -33.9102     0.0000    32.0000 </r>
       <r>   -33.7197     0.0000    32.0000 </r>
       <r>   -33.5292     0.0000    32.0000 </r>
       <r>   -33.3387     0.0000    32.0000 </r>
       <r>   -33.1482     0.0000    32.0000 </r>
       <r>   -32.9577     0.0000    32.0000 </r>
       <r>   -32.7672     0.0000    32.0000 </r>
       <r>   -32.5767     0.0000    32.0000 </r>
       <r>   -32.3862     0.0000    32.0000 </r>
       <r>   -32.1957     0.0000    32.0000 </r>
       <r>   -32.0052     0.0000    32.0000 </r>
       <r>   -31.8147     0.0000    32.0000 </r>
       <r>   -31.6242     0.0000    32.0000 </r>
       <r>   -31.4337     0.0000    32.0000 </r>
       <r>   -31.2432     0.0000    32.0000 </r>
       <r>   -31.0527     0.0000    32.0000 </r>
       <r>   -30.8623     0.0000    32.0000 </r>
       <r>   -30.6718     0.0000    32.0000 </r>
       <r>   -30.4813     0.0000    32.0000 </r>
       <r>   -30.2908     0.0000    32.0000 </r>
       <r>   -30.1003     0.0000    32.0000 </r>
       <r>   -29.9098     0.0000    32.0000 </r>
       <r>   -29.7193     0.0000    32.0000 </r>
       <r>   -29.5288     0.0000    32.0000 </r>
       <r>   -29.3383     0.0000    32.0000 </r>
       <r>   -29.1478     0.0000    32.0000 </r>
       <r>   -28.9573     0.0000    32.0000 </r>
       <r>   -28.7668     0.0000    32.0000 </r>
       <r>   -28.5763     0.0000    32.0000 </r>
       <r>   -28.3858     0.0000    32.0000 </r>
       <r>   -28.1953     0.0000    32.0000 </r>
       <r>   -28.0048     0.0000    32.0000 </r>
       <r>   -27.8143     0.0000    32.0000 </r>
       <r>   -27.6238     0.0000    32.0000 </r>
       <r>   -27.4334     0.0000    32.0000 </r>
       <r>   -27.2429     0.0000    32.0000 </r>
       <r>   -27.0524     0.0000    32.0000 </r>
       <r>   -26.8619     0.0000    32.0000 </r>
       <r>   -26.6714     0.0000    32.0000 </r>
       <r>   -26.4809     0.0000    32.0000 </r>
       <r>   -26.2904     0.0000    32.0000 </r>
       <r>   -26.0999     0.0000    32.0000 </r>
       <r>   -25.9094     0.0000    32.0000 </r>
       <r>   -25.7189     0.0000    32.0000 </r>
       <r>   -25.5284     0.0000    32.0000 </r>
       <r>   -25.3379     0.0000    32.0000 </r>
       <r>   -25.1474     0.0000    32.0000 </r>
       <r>   -24.9569     0.0000    32.0000 </r>
       <r>   -24.7664     0.0000    32.0000 </r>
       <r>   -24.5759     0.0000    32.0000 </r>
       <r>   -24.3854     0.0000    32.0000 </r>
       <r>   -24.1950     0.0000    32.0000 </r>
       <r>   -24.0045     0.0000    32.0000 </r>
       <r>   -23.8140     0.0000    32.0000 </r>
       <r>   -23.6235     0.0000    32.0000 </r>
       <r>   -23.4330     0.0000    32.0000 </r>
       <r>   -23.2425     0.0000    32.0000 </r>
       <r>   -23.0520     0.0000    32.0000 </r>
       <r>   -22.8615     0.0000    32.0000 </r>
       <r>   -22.6710     0.0000    32.0000 </r>
       <r>   -22.4805     0.0000    32.0000 </r>
       <r>   -22.2900     0.0000    32.0000 </r>
       <r>   -22.0995     0.0000    32.0000 </r>
       <r>   -21.9090     0.0000    32.0000 </r>
       <r>   -21.7185     0.0000    32.0000 </r>
       <r>   -21.5280     0.0000    32.0000 </r>
       <r>   -21.3375     0.0000    32.0000 </r>
       <r>   -21.1470     0.0000    32.0000 </r>
       <r>   -20.9566     0.0000    32.0000 </r>
       <r>   -20.7661     0.0000    32.0000 </r>
       <r>   -20.5756     0.0000    32.0000 </r>
       <r>   -20.3851     0.0000    32.0000 </r>
       <r>   -20.1946     0.0000    32.0000 </r>
       <r>   -20.0041     0.0000    32.0000 </r>
       <r>   -19.8136     0.0000    32.0000 </r>
       <r>   -19.6231     0.0000    32.0000 </r>
       <r>   -19.4326     0.0000    32.0000 </r>
       <r>   -19.2421     0.0000    32.0000 </r>
       <r>   -19.0516     0.0000    32.0000 </r>
       <r>   -18.8611     0.0000    32.0000 </r>
       <r>   -18.6706     0.0000    32.0000 </r>
       <r>   -18.4801     0.0000    32.0000 </r>
       <r>   -18.2896     0.0000    32.0000 </r>
       <r>   -18.0991     0.0000   128.0000 </r>
       <r>   -17.9086     0.0000   192.0000 </r>
       <r>   -17.7181     0.0000   192.0000 </r>
       <r>   -17.5277     0.0000   192.0000 </r>
       <r>   -17.3372     0.0000   192.0000 </r>
       <r>   -17.1467     0.0000   192.0000 </r>
       <r>   -16.9562     0.0000   192.0000 </r>
       <r>   -16.7657     0.0000   192.0000 </r>
       <r>   -16.5752     0.0000   192.0000 </r>
       <r>   -16.3847     0.0000   192.0000 </r>
       <r>   -16.1942     0.0000   192.0000 </r>
       <r>   -16.0037     0.0000   192.0000 </r>
       <r>   -15.8132     0.0000   192.0000 </r>
       <r>   -15.6227     0.0000   192.0000 </r>
       <r>   -15.4322     0.0000   192.0000 </r>
       <r>   -15.2417     0.0000   192.0000 </r>
       <r>   -15.0512     0.0000   192.0000 </r>
       <r>   -14.8607     0.0000   192.0000 </r>
       <r>   -14.6702     0.0000   192.0000 </r>
       <r>   -14.4797     0.0000   192.0000 </r>
       <r>   -14.2893     0.0000   192.0000 </r>
       <r>   -14.0988     0.0000   192.0000 </r>
       <r>   -13.9083     0.0000   192.0000 </r>
       <r>   -13.7178     0.0000   192.0000 </r>
       <r>   -13.5273     0.0000   192.0000 </r>
       <r>   -13.3368     0.0000   192.0000 </r>
       <r>   -13.1463     0.0000   192.0000 </r>
       <r>   -12.9558     0.0000   192.0000 </r>
       <r>   -12.7653     0.0000   192.0000 </r>
       <r>   -12.5748     0.0000   192.0000 </r>
       <r>   -12.3843    85.4279   193.2855 </r>
       <r>   -12.1938    67.0954   208.4777 </r>
       <r>   -12.0033     0.0000   224.0000 </r>
       <r>   -11.8128     0.0000   224.0000 </r>
       <r>   -11.6223     0.0000   224.0000 </r>
       <r>   -11.4318     0.0000   224.0000 </r>
       <r>   -11.2413     0.0000   224.0000 </r>
       <r>   -11.0509     0.0000   224.0000 </r>
       <r>   -10.8604     0.0000   224.0000 </r>
       <r>   -10.6699     0.0000   224.0000 </r>
       <r>   -10.4794     0.0000   224.0000 </r>
       <r>   -10.2889     0.0000   224.0000 </r>
       <r>   -10.0984     0.0000   224.0000 </r>
       <r>    -9.9079     0.0000   224.0000 </r>
       <r>    -9.7174     0.0000   224.0000 </r>
       <r>    -9.5269     0.0000   224.0000 </r>
       <r>    -9.3364     0.0000   224.0000 </r>
       <r>    -9.1459     0.0000   224.0000 </r>
       <r>    -8.9554     7.2288   224.5937 </r>
       <r>    -8.7649    10.8489   227.0079 </r>
       <r>    -8.5744     6.7163   228.4093 </r>
       <r>    -8.3839    22.2552   230.8094 </r>
       <r>    -8.1934    31.3358   233.3798 </r>
       <r>    -8.0029    11.5722   239.0035 </r>
       <r>    -7.8124     4.5902   240.0448 </r>
       <r>    -7.6220    31.3042   245.8739 </r>
       <r>    -7.4315    77.6950   251.3636 </r>
       <r>    -7.2410    17.5427   253.5308 </r>
       <r>    -7.0505     0.5340   255.9989 </r>
       <r>    -6.8600     0.0000   256.0000 </r>
       <r>    -6.6695     0.0000   256.0000 </r>
       <r>    -6.4790     0.0000   256.0000 </r>
       <r>    -6.2885     0.0000   256.0000 </r>
       <r>    -6.0980     0.0000   256.0000 </r>
       <r>    -5.9075     2.5618   256.0348 </r>
       <r>    -5.7170    21.0184   258.2795 </r>
       <r>    -5.5265     2.8411   264.0367 </r>
       <r>    -5.3360    24.2652   266.6186 </r>
       <r>    -5.1455    27.5056   272.4730 </r>
       <r>    -4.9550    19.2543   276.6927 </r>
       <r>    -4.7645     9.1654   279.4261 </r>
       <r>    -4.5740     2.4882   280.0861 </r>
       <r>    -4.3836     9.7636   281.2496 </r>
       <r>    -4.1931    14.8779   283.9019 </r>
       <r>    -4.0026     4.2406   284.7057 </r>
       <r>    -3.8121     6.6733   285.7453 </r>
       <r>    -3.6216     5.3120   287.2936 </r>
       <r>    -3.4311     1.6276   287.7761 </r>
       <r>    -3.2406     0.4961   287.9784 </r>
       <r>    -3.0501     0.0000   288.0000 </r>
       <r>    -2.8596     0.0000   288.0000 </r>
       <r>    -2.6691     0.0000   288.0000 </r>
       <r>    -2.4786     0.0000   288.0000 </r>
       <r>    -2.2881     0.0000   288.0000 </r>
       <r>    -2.0976     0.0000   288.0000 </r>
       <r>    -1.9071     0.0000   288.0000 </r>
       <r>    -1.7166     0.0000   288.0000 </r>
       <r>    -1.5261     0.0000   288.0000 </r>
       <r>    -1.3356     0.0000   288.0000 </r>
       <r>    -1.1452     0.0000   288.0000 </r>
       <r>    -0.9547     3.8583   288.1662 </r>
       <r>    -0.7642     5.1267   289.5402 </r>
       <r>    -0.5737     5.4132   290.4396 </r>
       <r>    -0.3832    14.7690   292.3635 </r>
       <r>    -0.1927     8.1822   294.4016 </r>
       <r>    -0.0022    15.3335   296.2487 </r>
       <r>     0.1883    24.6161   300.3798 </r>
       <r>     0.3788    47.8724   305.7194 </r>
       <r>     0.5693    29.3332   313.6325 </r>
       <r>     0.7598    37.4234   321.1928 </r>
       <r>     0.9503    19.2419   328.7088 </r>
       <r>     1.1408    43.0120   334.1276 </r>
       <r>     1.3313    29.7525   338.9975 </r>
       <r>     1.5218    65.1886   345.9261 </r>
       <r>     1.7123    51.2041   356.2536 </r>
       <r>     1.9028    38.9499   362.4973 </r>
       <r>     2.0933    97.6572   372.0559 </r>
       <r>     2.2837    87.0191   389.5160 </r>
       <r>     2.4742    15.1462   401.1533 </r>
       <r>     2.6647    17.7190   404.0694 </r>
       <r>     2.8552    85.7565   411.6354 </r>
       <r>     3.0457    83.9764   428.1429 </r>
       <r>     3.2362    64.7476   439.7773 </r>
       <r>     3.4267    67.1207   453.6646 </r>
       <r>     3.6172    23.7157   463.1477 </r>
       <r>     3.8077    23.2097   467.1732 </r>
       <r>     3.9982    14.1601   474.0943 </r>
       <r>     4.1887    12.1490   476.9114 </r>
       <r>     4.3792     7.5813   478.7904 </r>
       <r>     4.5697     3.0306   479.8009 </r>
       <r>     4.7602     0.0000   480.0000 </r>
       <r>     4.9507     0.0000   480.0000 </r>
       <r>     5.1412     0.0000   480.0000 </r>
       <r>     5.3317     0.0000   480.0000 </r>
       <r>     5.5221     0.0000   480.0000 </r>
       <r>     5.7126     1.1116   480.0251 </r>
       <r>     5.9031     6.6169   480.7618 </r>
       <r>     6.0936    12.0892   482.5440 </r>
       <r>     6.2841    22.7544   484.3418 </r>
       <r>     6.4746    14.2521   488.9022 </r>
       <r>     6.6651    12.7460   491.4371 </r>
       <r>     6.8556    12.4303   493.7930 </r>
       <r>     7.0461    14.4090   496.3492 </r>
       <r>     7.2366    16.4005   499.2835 </r>
       <r>     7.4271    18.9731   502.6210 </r>
       <r>     7.6176    28.5765   507.0247 </r>
       <r>     7.8081    49.6315   514.8813 </r>
       <r>     7.9986    23.6851   522.0046 </r>
       <r>     8.1891    28.0073   526.8377 </r>
       <r>     8.3796    26.4309   531.6086 </r>
       <r>     8.5701    40.7941   539.1264 </r>
       <r>     8.7606    27.9537   546.5748 </r>
       <r>     8.9510     9.9441   549.6421 </r>
       <r>     9.1415    54.5756   554.3641 </r>
       <r>     9.3320    18.5477   562.3263 </r>
       <r>     9.5225    27.8724   567.0467 </r>
       <r>     9.7130    25.2706   574.9043 </r>
       <r>     9.9035     0.0000   576.0000 </r>
       <r>    10.0940     0.0000   576.0000 </r>
       <r>    10.2845     8.1034   576.6511 </r>
       <r>    10.4750    10.3688   578.4866 </r>
       <r>    10.6655    19.1042   581.0146 </r>
       <r>    10.8560     9.3034   584.6000 </r>
       <r>    11.0465    30.2810   587.5523 </r>
       <r>    11.2370    52.4078   597.5424 </r>
       <r>    11.4275    35.6563   604.8284 </r>
       <r>    11.6180    17.7797   609.1582 </r>
       <r>    11.8085    15.1081   612.5436 </r>
       <r>    11.9990     6.9278   614.6505 </r>
       <r>    12.1894     3.1005   615.5595 </r>
       <r>    12.3799     0.9335   615.9226 </r>
       <r>    12.5704     0.0614   615.9986 </r>
       <r>    12.7609     0.0000   616.0000 </r>
       <r>    12.9514     0.0000   616.0000 </r>
       <r>    13.1419     0.0000   616.0000 </r>
       <r>    13.3324     0.0000   616.0000 </r>
       <r>    13.5229     0.0000   616.0000 </r>
       <r>    13.7134     0.0000   616.0000 </r>
       <r>    13.9039     0.0000   616.0000 </r>
       <r>    14.0944     0.0000   616.0000 </r>
       <r>    14.2849     0.0000   616.0000 </r>
       <r>    14.4754     0.0000   616.0000 </r>
       <r>    14.6659     0.0000   616.0000 </r>
       <r>    14.8564     0.0000   616.0000 </r>
       <r>    15.0469     0.0000   616.0000 </r>
       <r>    15.2374     0.0000   616.0000 </r>
      </set>
     </set>
    </array>
   </total>
  </dos>
 </calculation>
 <structure name="finalpos" >
  <crystal>
   <varray name="basis" >
    <v>      11.09454862       0.00000000       0.00000000 </v>
    <v>       0.00000000       9.38301277       0.00000000 </v>
    <v>       0.00000000       0.00000000      11.09414845 </v>
   </varray>
   <i name="volume">   1154.90408673 </i>
   <varray name="rec_basis" >
    <v>       0.09013436       0.00000000       0.00000000 </v>
    <v>       0.00000000       0.10657558       0.00000000 </v>
    <v>       0.00000000       0.00000000       0.09013761 </v>
   </varray>
  </crystal>
  <varray name="positions" >
   <v>       0.12495522       0.00001641       0.43739937 </v>
   <v>       0.37495522      -0.00001641       0.43739937 </v>
   <v>       0.12504478       0.00001641       0.18739937 </v>
   <v>       0.37504478      -0.00001641       0.18739937 </v>
   <v>       0.62495522       0.00001641       0.43739937 </v>
   <v>       0.87495522      -0.00001641       0.43739937 </v>
   <v>       0.62504478       0.00001641       0.18739937 </v>
   <v>       0.87504478      -0.00001641       0.18739937 </v>
   <v>       0.12495522       0.00001641       0.93739937 </v>
   <v>       0.37495522      -0.00001641       0.93739937 </v>
   <v>       0.12504478       0.00001641       0.68739937 </v>
   <v>       0.37504478      -0.00001641       0.68739937 </v>
   <v>       0.62495522       0.00001641       0.93739937 </v>
   <v>       0.87495522      -0.00001641       0.93739937 </v>
   <v>       0.62504478       0.00001641       0.68739937 </v>
   <v>       0.87504478      -0.00001641       0.68739937 </v>
   <v>      -0.00000493       0.30025157       0.06250397 </v>
   <v>       0.24999507       0.69974843       0.06250397 </v>
   <v>       0.25000493       0.30025157       0.31250397 </v>
   <v>       0.50000493       0.69974843       0.31250397 </v>
   <v>       0.49999507       0.30025157       0.06250397 </v>
   <v>       0.74999507       0.69974843       0.06250397 </v>
   <v>       0.75000493       0.30025157       0.31250397 </v>
   <v>       0.00000493       0.69974843       0.31250397 </v>
   <v>      -0.00000493       0.30025157       0.56250397 </v>
   <v>       0.24999507       0.69974843       0.56250397 </v>
   <v>       0.25000493       0.30025157       0.81250397 </v>
   <v>       0.50000493       0.69974843       0.81250397 </v>
   <v>       0.49999507       0.30025157       0.56250397 </v>
   <v>       0.74999507       0.69974843       0.56250397 </v>
   <v>       0.75000493       0.30025157       0.81250397 </v>
   <v>       0.00000493       0.69974843       0.81250397 </v>
   <v>       0.25000311       0.34486650       0.06267172 </v>
   <v>       0.00000311       0.65513350       0.06267172 </v>
   <v>       0.49999689       0.34486650       0.31267172 </v>
   <v>       0.24999689       0.65513350       0.31267172 </v>
   <v>       0.75000311       0.34486650       0.06267172 </v>
   <v>       0.50000311       0.65513350       0.06267172 </v>
   <v>       0.99999689       0.34486650       0.31267172 </v>
   <v>       0.74999689       0.65513350       0.31267172 </v>
   <v>       0.25000311       0.34486650       0.56267172 </v>
   <v>       0.00000311       0.65513350       0.56267172 </v>
   <v>       0.49999689       0.34486650       0.81267172 </v>
   <v>       0.24999689       0.65513350       0.81267172 </v>
   <v>       0.75000311       0.34486650       0.56267172 </v>
   <v>       0.50000311       0.65513350       0.56267172 </v>
   <v>       0.99999689       0.34486650       0.81267172 </v>
   <v>       0.74999689       0.65513350       0.81267172 </v>
   <v>       0.50001509       0.07767565       0.06243493 </v>
   <v>      -0.00001509       0.92232435       0.31243493 </v>
   <v>       0.25001509       0.92232435       0.06243493 </v>
   <v>       0.24998491       0.07767565       0.31243493 </v>
   <v>       0.00001509       0.07767565       0.06243493 </v>
   <v>       0.49998491       0.92232435       0.31243493 </v>
   <v>       0.75001509       0.92232435       0.06243493 </v>
   <v>       0.74998491       0.07767565       0.31243493 </v>
   <v>       0.50001509       0.07767565       0.56243493 </v>
   <v>      -0.00001509       0.92232435       0.81243493 </v>
   <v>       0.25001509       0.92232435       0.56243493 </v>
   <v>       0.24998491       0.07767565       0.81243493 </v>
   <v>       0.00001509       0.07767565       0.56243493 </v>
   <v>       0.49998491       0.92232435       0.81243493 </v>
   <v>       0.75001509       0.92232435       0.56243493 </v>
   <v>       0.74998491       0.07767565       0.81243493 </v>
  </varray>
 </structure>
</modeling>
