<?xml version="1.0" encoding="ISO-8859-1"?>
<modeling>
 <generator>
  <i name="program" type="string">vasp </i>
  <i name="version" type="string">5.4.4.18Apr17-6-g9f103f2a35  </i>
  <i name="subversion" type="string">(build Jul 31 2017 11:33:29) complex            parallel </i>
  <i name="platform" type="string">LinuxIFC </i>
  <i name="date" type="string">2021 09 20 </i>
  <i name="time" type="string">19:41:23 </i>
 </generator>
 <incar>
  <i type="string" name="SYSTEM"> La2O2S</i>
  <i type="string" name="PREC">normal</i>
  <i type="int" name="NELMIN">     4</i>
  <i type="int" name="IBRION">     2</i>
  <i type="int" name="NFREE">    10</i>
  <i name="EDIFF">      0.00000100</i>
  <i name="EDIFFG">     -0.01000000</i>
  <i type="int" name="NSW">   200</i>
  <i type="int" name="ISIF">     3</i>
  <i name="ENCUT">    600.00000000</i>
  <i name="ENAUG">    900.00000000</i>
  <i type="int" name="ISMEAR">    -5</i>
  <i type="logical" name="LWAVE"> F  </i>
  <i type="logical" name="LCHARG"> F  </i>
  <v type="int" name="KPOINT_BSE">    -1     0     0     0</v>
 </incar>
 <structure name="primitive_cell" >
  <crystal>
   <varray name="basis" >
    <v>      11.17850000       0.00000000       0.00000000 </v>
    <v>       0.00000000       9.57460000       0.00000000 </v>
    <v>       0.00000000       0.00000000      11.18240000 </v>
   </varray>
   <i name="volume">   1196.84853820 </i>
   <varray name="rec_basis" >
    <v>       0.08945744       0.00000000       0.00000000 </v>
    <v>       0.00000000       0.10444301       0.00000000 </v>
    <v>       0.00000000       0.00000000       0.08942624 </v>
   </varray>
  </crystal>
  <varray name="positions" >
   <v>      -0.12539000       0.00017000       0.18687000 </v>
   <v>      -0.25013000      -0.07798000       0.06246000 </v>
   <v>      -0.00013000       0.07798000       0.06246000 </v>
   <v>      -0.24987000       0.07798000       0.31246000 </v>
   <v>       0.00013000      -0.07798000       0.31246000 </v>
   <v>      -0.37539000      -0.00016000       0.18687000 </v>
   <v>      -0.12461000       0.00017000      -0.06313000 </v>
   <v>      -0.12461000       0.00017000       0.43687000 </v>
   <v>      -0.24987000      -0.29519000       0.06281000 </v>
   <v>       0.00013000       0.29519000       0.06281000 </v>
   <v>      -0.25013000       0.29519000       0.31282000 </v>
   <v>      -0.00013000      -0.29519000       0.31282000 </v>
   <v>      -0.24995000       0.32677000       0.06286000 </v>
   <v>       0.00005000      -0.32677000       0.06286000 </v>
   <v>      -0.25005000      -0.32677000       0.31286000 </v>
   <v>      -0.00005000       0.32677000       0.31286000 </v>
   <v>      -0.37461000      -0.00016000      -0.06313000 </v>
   <v>       0.12539000      -0.00016000      -0.06313000 </v>
   <v>      -0.24987000       0.07798000      -0.18754000 </v>
   <v>       0.49987000       0.07798000       0.06246000 </v>
   <v>      -0.49987000      -0.07798000       0.31246000 </v>
   <v>       0.00013000      -0.07798000      -0.18754000 </v>
   <v>       0.24987000      -0.07798000       0.06246000 </v>
   <v>      -0.25013000      -0.07798000      -0.43754000 </v>
   <v>       0.25013000       0.07798000       0.31246000 </v>
   <v>      -0.00013000       0.07798000      -0.43754000 </v>
   <v>      -0.25013000       0.29519000      -0.18718000 </v>
   <v>      -0.49987000       0.29519000       0.06281000 </v>
   <v>      -0.00013000      -0.29519000      -0.18718000 </v>
   <v>       0.49987000      -0.29519000       0.31282000 </v>
   <v>       0.25013000      -0.29519000       0.06281000 </v>
   <v>       0.24987000       0.29519000       0.31282000 </v>
   <v>      -0.24987000      -0.29519000      -0.43719000 </v>
   <v>       0.00013000       0.29519000      -0.43719000 </v>
   <v>      -0.25005000      -0.32677000      -0.18714000 </v>
   <v>      -0.00005000       0.32677000      -0.18714000 </v>
   <v>      -0.49995000      -0.32677000       0.06286000 </v>
   <v>       0.49995000       0.32677000       0.31286000 </v>
   <v>       0.25005000       0.32677000       0.06286000 </v>
   <v>       0.24995000      -0.32677000       0.31286000 </v>
   <v>      -0.24995000       0.32677000      -0.43714000 </v>
   <v>       0.00005000      -0.32677000      -0.43714000 </v>
   <v>      -0.12539000       0.00017000      -0.31313000 </v>
   <v>      -0.49987000      -0.07798000      -0.18754000 </v>
   <v>       0.25013000       0.07798000      -0.18754000 </v>
   <v>       0.49987000       0.07798000      -0.43754000 </v>
   <v>       0.24987000      -0.07798000      -0.43754000 </v>
   <v>       0.37539000       0.00017000      -0.06313000 </v>
   <v>       0.12461000      -0.00016000      -0.31313000 </v>
   <v>       0.49987000      -0.29519000      -0.18718000 </v>
   <v>       0.24987000       0.29519000      -0.18718000 </v>
   <v>      -0.49987000       0.29519000      -0.43719000 </v>
   <v>       0.25013000      -0.29519000      -0.43719000 </v>
   <v>       0.49995000       0.32677000      -0.18714000 </v>
   <v>       0.24995000      -0.32677000      -0.18714000 </v>
   <v>      -0.49995000      -0.32677000      -0.43714000 </v>
   <v>       0.25005000       0.32677000      -0.43714000 </v>
   <v>       0.37461000       0.00017000      -0.31313000 </v>
  </varray>
 </structure>
 <varray name="primitive_index" >
  <v type="int" >        1 </v>
  <v type="int" >       48 </v>
  <v type="int" >       47 </v>
  <v type="int" >       49 </v>
  <v type="int" >       46 </v>
  <v type="int" >        6 </v>
  <v type="int" >        3 </v>
  <v type="int" >        5 </v>
  <v type="int" >       16 </v>
  <v type="int" >       11 </v>
  <v type="int" >       17 </v>
  <v type="int" >       18 </v>
  <v type="int" >       31 </v>
  <v type="int" >       28 </v>
  <v type="int" >       34 </v>
  <v type="int" >       33 </v>
  <v type="int" >       10 </v>
  <v type="int" >        7 </v>
  <v type="int" >       57 </v>
  <v type="int" >       43 </v>
  <v type="int" >       50 </v>
  <v type="int" >       54 </v>
  <v type="int" >       44 </v>
  <v type="int" >       56 </v>
  <v type="int" >       45 </v>
  <v type="int" >       55 </v>
  <v type="int" >       25 </v>
  <v type="int" >       15 </v>
  <v type="int" >       26 </v>
  <v type="int" >       14 </v>
  <v type="int" >       12 </v>
  <v type="int" >       13 </v>
  <v type="int" >       24 </v>
  <v type="int" >       19 </v>
  <v type="int" >       42 </v>
  <v type="int" >       41 </v>
  <v type="int" >       32 </v>
  <v type="int" >       29 </v>
  <v type="int" >       27 </v>
  <v type="int" >       30 </v>
  <v type="int" >       39 </v>
  <v type="int" >       36 </v>
  <v type="int" >        4 </v>
  <v type="int" >       58 </v>
  <v type="int" >       53 </v>
  <v type="int" >       51 </v>
  <v type="int" >       52 </v>
  <v type="int" >        8 </v>
  <v type="int" >        9 </v>
  <v type="int" >       22 </v>
  <v type="int" >       21 </v>
  <v type="int" >       23 </v>
  <v type="int" >       20 </v>
  <v type="int" >       37 </v>
  <v type="int" >       38 </v>
  <v type="int" >       40 </v>
  <v type="int" >       35 </v>
  <v type="int" >        2 </v>
 </varray>
 <kpoints>
  <generation param="Gamma">
   <v type="int" name="divisions">       2        2        2 </v>
   <v name="usershift">      0.00000000       0.00000000       0.00000000 </v>
   <v name="genvec1">      0.50000000       0.00000000       0.00000000 </v>
   <v name="genvec2">      0.00000000       0.50000000       0.00000000 </v>
   <v name="genvec3">      0.00000000       0.00000000       0.50000000 </v>
   <v name="shift">      0.00000000       0.00000000       0.00000000 </v>
  </generation>
  <varray name="kpointlist" >
   <v>       0.00000000       0.00000000       0.00000000 </v>
   <v>       0.50000000       0.00000000       0.00000000 </v>
   <v>       0.00000000       0.50000000       0.00000000 </v>
   <v>       0.50000000       0.50000000       0.00000000 </v>
   <v>       0.00000000       0.00000000       0.50000000 </v>
   <v>       0.50000000       0.00000000       0.50000000 </v>
   <v>       0.00000000       0.50000000       0.50000000 </v>
   <v>       0.50000000       0.50000000       0.50000000 </v>
  </varray>
  <varray name="weights" >
   <v>       0.12500000 </v>
   <v>       0.12500000 </v>
   <v>       0.12500000 </v>
   <v>       0.12500000 </v>
   <v>       0.12500000 </v>
   <v>       0.12500000 </v>
   <v>       0.12500000 </v>
   <v>       0.12500000 </v>
  </varray>
  <varray name="tetrahedronlist"  type="int" >
   <v type="int" >        2        1        2        4        5 </v>
   <v type="int" >        2        1        3        4        5 </v>
   <v type="int" >        2        3        4        5        7 </v>
   <v type="int" >        2        2        4        5        6 </v>
   <v type="int" >        2        4        5        6        8 </v>
   <v type="int" >        2        4        5        7        8 </v>
   <v type="int" >        2        1        2        3        6 </v>
   <v type="int" >        2        2        3        4        6 </v>
   <v type="int" >        2        3        4        6        8 </v>
   <v type="int" >        2        1        3        5        6 </v>
   <v type="int" >        2        3        5        6        7 </v>
   <v type="int" >        2        3        6        7        8 </v>
   <v type="int" >        2        2        3        4        7 </v>
   <v type="int" >        2        1        2        3        7 </v>
   <v type="int" >        2        1        2        5        7 </v>
   <v type="int" >        2        2        4        7        8 </v>
   <v type="int" >        2        2        6        7        8 </v>
   <v type="int" >        2        2        5        6        7 </v>
   <v type="int" >        2        1        3        4        8 </v>
   <v type="int" >        2        1        2        4        8 </v>
   <v type="int" >        2        1        2        6        8 </v>
   <v type="int" >        2        1        3        7        8 </v>
   <v type="int" >        2        1        5        7        8 </v>
   <v type="int" >        2        1        5        6        8 </v>
  </varray>
  <i name="volumeweight">      0.02083333 </i>
 </kpoints>
 <parameters>
  <separator name="general" >
   <i type="string" name="SYSTEM">La2O2S</i>
   <i type="logical" name="LCOMPAT"> F  </i>
  </separator>
  <separator name="electronic" >
   <i type="string" name="PREC">normal</i>
   <i name="ENMAX">    600.00000000</i>
   <i name="ENAUG">    900.00000000</i>
   <i name="EDIFF">      0.00000100</i>
   <i type="int" name="IALGO">    38</i>
   <i type="int" name="IWAVPR">    11</i>
   <i type="int" name="NBANDS">   280</i>
   <i name="NELECT">    456.00000000</i>
   <i type="int" name="TURBO">     0</i>
   <i type="int" name="IRESTART">     0</i>
   <i type="int" name="NREBOOT">     0</i>
   <i type="int" name="NMIN">     0</i>
   <i name="EREF">      0.00000000</i>
   <separator name="electronic smearing" >
    <i type="int" name="ISMEAR">    -5</i>
    <i name="SIGMA">      0.20000000</i>
    <i name="KSPACING">      0.50000000</i>
    <i type="logical" name="KGAMMA"> T  </i>
   </separator>
   <separator name="electronic projectors" >
    <i type="logical" name="LREAL"> F  </i>
    <v name="ROPT">      0.00000000      0.00000000      0.00000000      0.00000000      0.00000000</v>
    <i type="int" name="LMAXPAW">  -100</i>
    <i type="int" name="LMAXMIX">     2</i>
    <i type="logical" name="NLSPLINE"> F  </i>
   </separator>
   <separator name="electronic startup" >
    <i type="int" name="ISTART">     0</i>
    <i type="int" name="ICHARG">     2</i>
    <i type="int" name="INIWAV">     1</i>
   </separator>
   <separator name="electronic spin" >
    <i type="int" name="ISPIN">     1</i>
    <i type="logical" name="LNONCOLLINEAR"> F  </i>
    <v name="MAGMOM">      1.00000000      1.00000000      1.00000000      1.00000000      1.00000000      1.00000000      1.00000000      1.00000000      1.00000000      1.00000000      1.00000000      1.00000000      1.00000000      1.00000000      1.00000000      1.00000000      1.00000000      1.00000000      1.00000000      1.00000000
      1.00000000      1.00000000      1.00000000      1.00000000      1.00000000      1.00000000      1.00000000      1.00000000      1.00000000      1.00000000      1.00000000      1.00000000      1.00000000      1.00000000      1.00000000      1.00000000      1.00000000      1.00000000      1.00000000      1.00000000
      1.00000000      1.00000000      1.00000000      1.00000000      1.00000000      1.00000000      1.00000000      1.00000000      1.00000000      1.00000000      1.00000000      1.00000000      1.00000000      1.00000000      1.00000000      1.00000000      1.00000000      1.00000000</v>
    <i name="NUPDOWN">     -1.00000000</i>
    <i type="logical" name="LSORBIT"> F  </i>
    <v name="SAXIS">      0.00000000      0.00000000      1.00000000</v>
    <i type="logical" name="LSPIRAL"> F  </i>
    <v name="QSPIRAL">      0.00000000      0.00000000      0.00000000</v>
    <i type="logical" name="LZEROZ"> F  </i>
   </separator>
   <separator name="electronic exchange-correlation" >
    <i type="logical" name="LASPH"> F  </i>
    <i type="logical" name="LMETAGGA"> F  </i>
   </separator>
   <separator name="electronic convergence" >
    <i type="int" name="NELM">    60</i>
    <i type="int" name="NELMDL">    -5</i>
    <i type="int" name="NELMIN">     4</i>
    <i name="ENINI">    600.00000000</i>
    <separator name="electronic convergence detail" >
     <i type="logical" name="LDIAG"> T  </i>
     <i type="logical" name="LSUBROT"> F  </i>
     <i name="WEIMIN">      0.00100000</i>
     <i name="EBREAK">      0.00000000</i>
     <i name="DEPER">      0.30000000</i>
     <i type="int" name="NRMM">     4</i>
     <i name="TIME">      0.40000000</i>
    </separator>
   </separator>
   <separator name="electronic mixer" >
    <i name="AMIX">      0.40000000</i>
    <i name="BMIX">      1.00000000</i>
    <i name="AMIN">      0.10000000</i>
    <i name="AMIX_MAG">      1.60000000</i>
    <i name="BMIX_MAG">      1.00000000</i>
    <separator name="electronic mixer details" >
     <i type="int" name="IMIX">     4</i>
     <i type="logical" name="MIXFIRST"> F  </i>
     <i type="int" name="MAXMIX">   -45</i>
     <i name="WC">    100.00000000</i>
     <i type="int" name="INIMIX">     1</i>
     <i type="int" name="MIXPRE">     1</i>
     <i type="int" name="MREMOVE">     5</i>
    </separator>
   </separator>
   <separator name="electronic dipolcorrection" >
    <i type="logical" name="LDIPOL"> F  </i>
    <i type="logical" name="LMONO"> F  </i>
    <i type="int" name="IDIPOL">     0</i>
    <i name="EPSILON">      1.00000000</i>
    <v name="DIPOL">   -100.00000000   -100.00000000   -100.00000000</v>
    <i name="EFIELD">      0.00000000</i>
   </separator>
  </separator>
  <separator name="grids" >
   <i type="int" name="NGX">    70</i>
   <i type="int" name="NGY">    60</i>
   <i type="int" name="NGZ">    70</i>
   <i type="int" name="NGXF">   140</i>
   <i type="int" name="NGYF">   120</i>
   <i type="int" name="NGZF">   140</i>
   <i type="logical" name="ADDGRID"> F  </i>
  </separator>
  <separator name="ionic" >
   <i type="int" name="NSW">   200</i>
   <i type="int" name="IBRION">     2</i>
   <i type="int" name="MDALGO">     0</i>
   <i type="int" name="ISIF">     3</i>
   <i name="PSTRESS">      0.00000000</i>
   <i name="EDIFFG">     -0.01000000</i>
   <i type="int" name="NFREE">    10</i>
   <i name="POTIM">      0.50000000</i>
   <i name="SMASS">     -3.00000000</i>
   <i name="SCALEE">      1.00000000</i>
  </separator>
  <separator name="ionic md" >
   <i name="TEBEG">      0.00010000</i>
   <i name="TEEND">      0.00010000</i>
   <i type="int" name="NBLOCK">     1</i>
   <i type="int" name="KBLOCK">   200</i>
   <i type="int" name="NPACO">   256</i>
   <i name="APACO">     16.00000000</i>
  </separator>
  <separator name="symmetry" >
   <i type="int" name="ISYM">     2</i>
   <i name="SYMPREC">      0.00001000</i>
  </separator>
  <separator name="dos" >
   <i type="int" name="LORBIT">     0</i>
   <v name="RWIGS">     -1.00000000     -1.00000000     -1.00000000     -1.00000000     -1.00000000</v>
   <i type="int" name="NEDOS">   301</i>
   <i name="EMIN">     10.00000000</i>
   <i name="EMAX">    -10.00000000</i>
   <i name="EFERMI">      0.00000000</i>
  </separator>
  <separator name="writing" >
   <i type="int" name="NWRITE">     2</i>
   <i type="logical" name="LWAVE"> F  </i>
   <i type="logical" name="LDOWNSAMPLE"> F  </i>
   <i type="logical" name="LCHARG"> F  </i>
   <i type="logical" name="LPARD"> F  </i>
   <i type="logical" name="LVTOT"> F  </i>
   <i type="logical" name="LVHAR"> F  </i>
   <i type="logical" name="LELF"> F  </i>
   <i type="logical" name="LOPTICS"> F  </i>
   <v name="STM">      0.00000000      0.00000000      0.00000000      0.00000000      0.00000000      0.00000000      0.00000000</v>
  </separator>
  <separator name="performance" >
   <i type="int" name="NPAR">    28</i>
   <i type="int" name="NSIM">     4</i>
   <i type="int" name="NBLK">    -1</i>
   <i type="logical" name="LPLANE"> T  </i>
   <i type="logical" name="LSCALAPACK"> T  </i>
   <i type="logical" name="LSCAAWARE"> F  </i>
   <i type="logical" name="LSCALU"> F  </i>
   <i type="logical" name="LASYNC"> F  </i>
   <i type="logical" name="LORBITALREAL"> F  </i>
  </separator>
  <separator name="miscellaneous" >
   <i type="int" name="IDIOT">     3</i>
   <i type="int" name="ISPECIAL">     0</i>
   <i type="logical" name="LMUSIC"> F  </i>
   <v name="POMASS">      7.01000000     24.30500000    208.98000000     32.06600000     16.00000000</v>
   <v name="DARWINR">      0.00000000      0.00000000      0.00000000      0.00000000      0.00000000</v>
   <v name="DARWINV">      1.00000000      1.00000000      1.00000000      1.00000000      1.00000000</v>
   <i type="logical" name="LCORR"> T  </i>
  </separator>
  <i type="logical" name="GGA_COMPAT"> T  </i>
  <i type="logical" name="LBERRY"> F  </i>
  <i type="int" name="ICORELEVEL">     0</i>
  <i type="logical" name="LDAU"> F  </i>
  <i type="int" name="I_CONSTRAINED_M">     0</i>
  <separator name="electronic exchange-correlation" >
   <i type="string" name="GGA">--</i>
   <i type="int" name="VOSKOWN">     0</i>
   <i type="logical" name="LHFCALC"> F  </i>
   <i type="string" name="PRECFOCK"></i>
   <i type="logical" name="LSYMGRAD"> F  </i>
   <i type="logical" name="LHFONE"> F  </i>
   <i type="logical" name="LRHFCALC"> F  </i>
   <i type="logical" name="LTHOMAS"> F  </i>
   <i type="logical" name="LMODELHF"> F  </i>
   <i name="ENCUT4O">     -1.00000000</i>
   <i type="int" name="EXXOEP">     0</i>
   <i type="int" name="FOURORBIT">     0</i>
   <i name="AEXX">      0.00000000</i>
   <i name="HFALPHA">      0.00000000</i>
   <i name="MCALPHA">      0.00000000</i>
   <i name="ALDAX">      1.00000000</i>
   <i name="AGGAX">      1.00000000</i>
   <i name="ALDAC">      1.00000000</i>
   <i name="AGGAC">      1.00000000</i>
   <i type="int" name="NKREDX">     1</i>
   <i type="int" name="NKREDY">     1</i>
   <i type="int" name="NKREDZ">     1</i>
   <i type="logical" name="SHIFTRED"> F  </i>
   <i type="logical" name="ODDONLY"> F  </i>
   <i type="logical" name="EVENONLY"> F  </i>
   <i type="int" name="LMAXFOCK">     0</i>
   <i type="int" name="NMAXFOCKAE">     0</i>
   <i type="logical" name="LFOCKAEDFT"> F  </i>
   <i name="HFSCREEN">      0.00000000</i>
   <i name="HFSCREENC">      0.00000000</i>
   <i type="int" name="NBANDSGWLOW">     0</i>
  </separator>
  <separator name="vdW DFT" >
   <i type="logical" name="LUSE_VDW"> F  </i>
   <i name="Zab_VDW">     -0.84910000</i>
   <i name="PARAM1">      0.12340000</i>
   <i name="PARAM2">      1.00000000</i>
   <i name="PARAM3">      0.00000000</i>
  </separator>
  <separator name="model GW" >
   <i type="int" name="MODEL_GW">     0</i>
   <i name="MODEL_EPS0">     12.38119177</i>
   <i name="MODEL_ALPHA">      1.00000000</i>
  </separator>
  <separator name="linear response parameters" >
   <i type="logical" name="LEPSILON"> F  </i>
   <i type="logical" name="LRPA"> F  </i>
   <i type="logical" name="LNABLA"> F  </i>
   <i type="logical" name="LVEL"> F  </i>
   <i type="int" name="KINTER">     0</i>
   <i name="CSHIFT">      0.10000000</i>
   <i name="OMEGAMAX">     -1.00000000</i>
   <i name="DEG_THRESHOLD">      0.00200000</i>
   <i name="RTIME">     -0.10000000</i>
   <i name="WPLASMAI">      0.00000000</i>
   <v name="DFIELD">      0.00000000      0.00000000      0.00000000</v>
   <v name="WPLASMA">      0.00000000      0.00000000      0.00000000      0.00000000      0.00000000      0.00000000      0.00000000      0.00000000      0.00000000</v>
  </separator>
  <separator name="orbital magnetization" >
   <i type="logical" name="NUCIND"> F  </i>
   <v name="MAGPOS">      0.00000000      0.00000000      0.00000000</v>
   <i type="logical" name="LNICSALL"> T  </i>
   <i type="logical" name="ORBITALMAG"> F  </i>
   <i type="logical" name="LMAGBLOCH"> F  </i>
   <i type="logical" name="LCHIMAG"> F  </i>
   <i type="logical" name="LGAUGE"> T  </i>
   <i type="int" name="MAGATOM">     0</i>
   <v name="MAGDIPOL">      0.00000000      0.00000000      0.00000000</v>
   <v name="AVECCONST">      0.00000000      0.00000000      0.00000000</v>
  </separator>
  <separator name="response functions" >
   <i type="logical" name="LADDER"> F  </i>
   <i type="logical" name="LRPAFORCE"> F  </i>
   <i type="logical" name="LFXC"> F  </i>
   <i type="logical" name="LHARTREE"> T  </i>
   <i type="int" name="IBSE">     0</i>
   <v type="int" name="KPOINT">    -1     0     0     0</v>
   <i type="logical" name="LTCTE"> F  </i>
   <i type="logical" name="LTETE"> F  </i>
   <i type="logical" name="LTRIPLET"> F  </i>
   <i type="logical" name="LFXCEPS"> F  </i>
   <i type="logical" name="LFXHEG"> F  </i>
   <i type="int" name="NATURALO">     2</i>
   <i type="logical" name="L2ORDER"> F  </i>
   <i type="logical" name="LMP2LT"> F  </i>
   <i type="logical" name="LUSEW"> F  </i>
   <i name="ENCUTGW">     -2.00000000</i>
   <i name="ENCUTGWSOFT">     -2.00000000</i>
   <i name="ENCUTLF">     -1.00000000</i>
   <i type="int" name="LMAXMP2">    -1</i>
   <i name="SCISSOR">      0.00000000</i>
   <i type="int" name="NOMEGA">     0</i>
   <i type="int" name="NOMEGAR">     0</i>
   <i type="int" name="NBANDSGW">    -1</i>
   <i type="int" name="NBANDSO">    -1</i>
   <i type="int" name="NBANDSV">    -1</i>
   <i type="int" name="NELM">     1</i>
   <i type="int" name="NELMHF">     1</i>
   <i type="int" name="DIM">     3</i>
   <i type="int" name="ANTIRES">     0</i>
   <i name="OMEGAMAX">    -30.00000000</i>
   <i name="OMEGAMIN">    -30.00000000</i>
   <i name="OMEGATL">   -200.00000000</i>
   <i type="int" name="OMEGAGRID">   140</i>
   <i name="CSHIFT">     -0.10000000</i>
   <i type="logical" name="SELFENERGY"> F  </i>
   <i type="logical" name="LSPECTRAL"> F  </i>
   <i type="logical" name="LSPECTRALGW"> F  </i>
   <i type="logical" name="LSINGLES"> F  </i>
   <i type="logical" name="LFERMIGW"> F  </i>
   <i type="logical" name="ODDONLYGW"> F  </i>
   <i type="logical" name="EVENONLYGW"> F  </i>
   <i type="int" name="NKREDLFX">     1</i>
   <i type="int" name="NKREDLFY">     1</i>
   <i type="int" name="NKREDLFZ">     1</i>
   <i type="int" name="MAXMEM">  2800</i>
   <i type="int" name="TELESCOPE">     0</i>
   <i type="int" name="TAUPAR">     1</i>
   <i type="int" name="OMEGAPAR">    -1</i>
   <i name="LAMBDA">      1.00000000</i>
  </separator>
  <separator name="External order field" >
   <i name="OFIELD_KAPPA">      0.00000000</i>
   <v name="OFIELD_K">      0.00000000      0.00000000      0.00000000</v>
   <i name="OFIELD_Q6_NEAR">      0.00000000</i>
   <i name="OFIELD_Q6_FAR">      0.00000000</i>
   <i name="OFIELD_A">      0.00000000</i>
  </separator>
 </parameters>
 <atominfo>
  <atoms>      58 </atoms>
  <types>       5 </types>
  <array name="atoms" >
   <dimension dim="1">ion</dimension>
   <field type="string">element</field>
   <field type="int">atomtype</field>
   <set>
    <rc><c>Li</c><c>   1</c></rc>
    <rc><c>Li</c><c>   1</c></rc>
    <rc><c>Li</c><c>   1</c></rc>
    <rc><c>Li</c><c>   1</c></rc>
    <rc><c>Mg</c><c>   2</c></rc>
    <rc><c>Mg</c><c>   2</c></rc>
    <rc><c>Mg</c><c>   2</c></rc>
    <rc><c>Mg</c><c>   2</c></rc>
    <rc><c>Mg</c><c>   2</c></rc>
    <rc><c>Mg</c><c>   2</c></rc>
    <rc><c>Bi</c><c>   3</c></rc>
    <rc><c>Bi</c><c>   3</c></rc>
    <rc><c>Bi</c><c>   3</c></rc>
    <rc><c>Bi</c><c>   3</c></rc>
    <rc><c>Bi</c><c>   3</c></rc>
    <rc><c>Bi</c><c>   3</c></rc>
    <rc><c>Bi</c><c>   3</c></rc>
    <rc><c>Bi</c><c>   3</c></rc>
    <rc><c>Bi</c><c>   3</c></rc>
    <rc><c>Bi</c><c>   3</c></rc>
    <rc><c>Bi</c><c>   3</c></rc>
    <rc><c>Bi</c><c>   3</c></rc>
    <rc><c>Bi</c><c>   3</c></rc>
    <rc><c>Bi</c><c>   3</c></rc>
    <rc><c>Bi</c><c>   3</c></rc>
    <rc><c>Bi</c><c>   3</c></rc>
    <rc><c>S </c><c>   4</c></rc>
    <rc><c>S </c><c>   4</c></rc>
    <rc><c>S </c><c>   4</c></rc>
    <rc><c>S </c><c>   4</c></rc>
    <rc><c>S </c><c>   4</c></rc>
    <rc><c>S </c><c>   4</c></rc>
    <rc><c>S </c><c>   4</c></rc>
    <rc><c>S </c><c>   4</c></rc>
    <rc><c>S </c><c>   4</c></rc>
    <rc><c>S </c><c>   4</c></rc>
    <rc><c>S </c><c>   4</c></rc>
    <rc><c>S </c><c>   4</c></rc>
    <rc><c>S </c><c>   4</c></rc>
    <rc><c>S </c><c>   4</c></rc>
    <rc><c>S </c><c>   4</c></rc>
    <rc><c>S </c><c>   4</c></rc>
    <rc><c>O </c><c>   5</c></rc>
    <rc><c>O </c><c>   5</c></rc>
    <rc><c>O </c><c>   5</c></rc>
    <rc><c>O </c><c>   5</c></rc>
    <rc><c>O </c><c>   5</c></rc>
    <rc><c>O </c><c>   5</c></rc>
    <rc><c>O </c><c>   5</c></rc>
    <rc><c>O </c><c>   5</c></rc>
    <rc><c>O </c><c>   5</c></rc>
    <rc><c>O </c><c>   5</c></rc>
    <rc><c>O </c><c>   5</c></rc>
    <rc><c>O </c><c>   5</c></rc>
    <rc><c>O </c><c>   5</c></rc>
    <rc><c>O </c><c>   5</c></rc>
    <rc><c>O </c><c>   5</c></rc>
    <rc><c>O </c><c>   5</c></rc>
   </set>
  </array>
  <array name="atomtypes" >
   <dimension dim="1">type</dimension>
   <field type="int">atomspertype</field>
   <field type="string">element</field>
   <field>mass</field>
   <field>valence</field>
   <field type="string">pseudopotential</field>
   <set>
    <rc><c>   4</c><c>Li</c><c>      7.01000000</c><c>      3.00000000</c><c>  PAW_PBE Li_sv 10Sep2004               </c></rc>
    <rc><c>   6</c><c>Mg</c><c>     24.30500000</c><c>      2.00000000</c><c>  PAW_PBE Mg 13Apr2007                  </c></rc>
    <rc><c>  16</c><c>Bi</c><c>    208.98000000</c><c>     15.00000000</c><c>  PAW_PBE Bi_d 06Sep2000                </c></rc>
    <rc><c>  16</c><c>S </c><c>     32.06600000</c><c>      6.00000000</c><c>  PAW_PBE S 06Sep2000                   </c></rc>
    <rc><c>  16</c><c>O </c><c>     16.00000000</c><c>      6.00000000</c><c>  PAW_PBE O 08Apr2002                   </c></rc>
   </set>
  </array>
 </atominfo>
 <structure name="initialpos" >
  <crystal>
   <varray name="basis" >
    <v>      11.17850000       0.00000000       0.00000000 </v>
    <v>       0.00000000       9.57460000       0.00000000 </v>
    <v>       0.00000000       0.00000000      11.18240000 </v>
   </varray>
   <i name="volume">   1196.84853820 </i>
   <varray name="rec_basis" >
    <v>       0.08945744       0.00000000       0.00000000 </v>
    <v>       0.00000000       0.10444301       0.00000000 </v>
    <v>       0.00000000       0.00000000       0.08942624 </v>
   </varray>
  </crystal>
  <varray name="positions" >
   <v>       0.87461000       0.00017000       0.18687000 </v>
   <v>       0.37461000       0.00017000       0.68687000 </v>
   <v>       0.87539000       0.00017000       0.93687000 </v>
   <v>       0.87461000       0.00017000       0.68687000 </v>
   <v>       0.87539000       0.00017000       0.43687000 </v>
   <v>       0.62461000       0.99984000       0.18687000 </v>
   <v>       0.12539000       0.99984000       0.93687000 </v>
   <v>       0.37539000       0.00017000       0.93687000 </v>
   <v>       0.12461000       0.99984000       0.68687000 </v>
   <v>       0.62539000       0.99984000       0.93687000 </v>
   <v>       0.00013000       0.29519000       0.06281000 </v>
   <v>       0.25013000       0.70481000       0.06281000 </v>
   <v>       0.24987000       0.29519000       0.31282000 </v>
   <v>       0.49987000       0.70481000       0.31282000 </v>
   <v>       0.50013000       0.29519000       0.06281000 </v>
   <v>       0.75013000       0.70481000       0.06281000 </v>
   <v>       0.74987000       0.29519000       0.31282000 </v>
   <v>       0.99987000       0.70481000       0.31282000 </v>
   <v>       0.00013000       0.29519000       0.56281000 </v>
   <v>       0.25013000       0.70481000       0.56281000 </v>
   <v>       0.24987000       0.29519000       0.81282000 </v>
   <v>       0.49987000       0.70481000       0.81282000 </v>
   <v>       0.50013000       0.29519000       0.56281000 </v>
   <v>       0.75013000       0.70481000       0.56281000 </v>
   <v>       0.74987000       0.29519000       0.81282000 </v>
   <v>       0.99987000       0.70481000       0.81282000 </v>
   <v>       0.25005000       0.32677000       0.06286000 </v>
   <v>       0.00005000       0.67323000       0.06286000 </v>
   <v>       0.49995000       0.32677000       0.31286000 </v>
   <v>       0.24995000       0.67323000       0.31286000 </v>
   <v>       0.75005000       0.32677000       0.06286000 </v>
   <v>       0.50005000       0.67323000       0.06286000 </v>
   <v>       0.99995000       0.32677000       0.31286000 </v>
   <v>       0.74995000       0.67323000       0.31286000 </v>
   <v>       0.25005000       0.32677000       0.56286000 </v>
   <v>       0.00005000       0.67323000       0.56286000 </v>
   <v>       0.49995000       0.32677000       0.81286000 </v>
   <v>       0.24995000       0.67323000       0.81286000 </v>
   <v>       0.75005000       0.32677000       0.56286000 </v>
   <v>       0.50005000       0.67323000       0.56286000 </v>
   <v>       0.99995000       0.32677000       0.81286000 </v>
   <v>       0.74995000       0.67323000       0.81286000 </v>
   <v>       0.49987000       0.07798000       0.06246000 </v>
   <v>       0.24987000       0.92202000       0.06246000 </v>
   <v>       0.25013000       0.07798000       0.31246000 </v>
   <v>       0.00013000       0.92202000       0.31246000 </v>
   <v>       0.99987000       0.07798000       0.06246000 </v>
   <v>       0.74987000       0.92202000       0.06246000 </v>
   <v>       0.75013000       0.07798000       0.31246000 </v>
   <v>       0.50013000       0.92202000       0.31246000 </v>
   <v>       0.49987000       0.07798000       0.56246000 </v>
   <v>       0.24987000       0.92202000       0.56246000 </v>
   <v>       0.25013000       0.07798000       0.81246000 </v>
   <v>       0.00013000       0.92202000       0.81246000 </v>
   <v>       0.99987000       0.07798000       0.56246000 </v>
   <v>       0.74987000       0.92202000       0.56246000 </v>
   <v>       0.75013000       0.07798000       0.81246000 </v>
   <v>       0.50013000       0.92202000       0.81246000 </v>
  </varray>
 </structure>
 <calculation>
  <scstep>
   <time name="dav">   60.42   60.69</time>
   <time name="total">   60.50   60.78</time>
   <energy>
    <i name="alphaZ">   1054.17224280 </i>
    <i name="ewald"> -30138.61366895 </i>
    <i name="hartreedc"> -12740.07542210 </i>
    <i name="XCdc">   1173.63987980 </i>
    <i name="pawpsdc">  36541.05238669 </i>
    <i name="pawaedc"> -35795.85877930 </i>
    <i name="eentropy">      0.00000000 </i>
    <i name="bandstr">   1909.01774486 </i>
    <i name="atom">  43643.51795008 </i>
    <i name="e_fr_energy">   5646.85233387 </i>
    <i name="e_wo_entrp">   5646.85233387 </i>
    <i name="e_0_energy">   5646.85233387 </i>
   </energy>
  </scstep>
  <scstep>
   <time name="dav">   61.21   61.50</time>
   <time name="total">   61.22   61.51</time>
   <energy>
    <i name="e_fr_energy">    739.48581155 </i>
    <i name="e_wo_entrp">    739.48581155 </i>
    <i name="e_0_energy">    739.48581155 </i>
   </energy>
  </scstep>
  <scstep>
   <time name="dav">   69.17   69.63</time>
   <time name="total">   69.17   69.63</time>
   <energy>
    <i name="e_fr_energy">   -240.21323346 </i>
    <i name="e_wo_entrp">   -240.21323346 </i>
    <i name="e_0_energy">   -240.21323346 </i>
   </energy>
  </scstep>
  <scstep>
   <time name="dav">   71.43   72.43</time>
   <time name="total">   71.43   72.44</time>
   <energy>
    <i name="e_fr_energy">   -327.40094682 </i>
    <i name="e_wo_entrp">   -327.40094682 </i>
    <i name="e_0_energy">   -327.40094682 </i>
   </energy>
  </scstep>
  <scstep>
   <time name="dav">   90.32   90.62</time>
   <time name="total">   91.04   91.34</time>
   <energy>
    <i name="e_fr_energy">   -333.37896964 </i>
    <i name="e_wo_entrp">   -333.37896964 </i>
    <i name="e_0_energy">   -333.37896964 </i>
   </energy>
  </scstep>
  <scstep>
   <time name="dav">   84.66   85.00</time>
   <time name="total">   85.46   85.80</time>
   <energy>
    <i name="e_fr_energy">   -281.51036691 </i>
    <i name="e_wo_entrp">   -281.51036691 </i>
    <i name="e_0_energy">   -281.51036691 </i>
   </energy>
  </scstep>
  <scstep>
   <time name="dav">   71.76   72.07</time>
   <time name="total">   72.57   72.89</time>
   <energy>
    <i name="e_fr_energy">   -287.06269993 </i>
    <i name="e_wo_entrp">   -287.06269993 </i>
    <i name="e_0_energy">   -287.06269993 </i>
   </energy>
  </scstep>
  <scstep>
   <time name="dav">   81.78   82.05</time>
   <time name="total">   82.56   82.84</time>
   <energy>
    <i name="e_fr_energy">   -281.55840844 </i>
    <i name="e_wo_entrp">   -281.55840844 </i>
    <i name="e_0_energy">   -281.55840844 </i>
   </energy>
  </scstep>
  <scstep>
   <time name="dav">   79.53   79.87</time>
   <time name="total">   80.32   80.67</time>
   <energy>
    <i name="e_fr_energy">   -286.87125887 </i>
    <i name="e_wo_entrp">   -286.87125887 </i>
    <i name="e_0_energy">   -286.87125887 </i>
   </energy>
  </scstep>
  <scstep>
   <time name="dav">   68.51   68.81</time>
   <time name="total">   69.30   69.60</time>
   <energy>
    <i name="e_fr_energy">   -279.88486676 </i>
    <i name="e_wo_entrp">   -279.88486676 </i>
    <i name="e_0_energy">   -279.88486676 </i>
   </energy>
  </scstep>
  <scstep>
   <time name="dav">   68.87   69.78</time>
   <time name="total">   69.56   70.61</time>
   <energy>
    <i name="e_fr_energy">   -280.22767566 </i>
    <i name="e_wo_entrp">   -280.22767566 </i>
    <i name="e_0_energy">   -280.22767566 </i>
   </energy>
  </scstep>
  <scstep>
   <time name="dav">   67.14   68.67</time>
   <time name="total">   67.92   69.46</time>
   <energy>
    <i name="e_fr_energy">   -279.99343486 </i>
    <i name="e_wo_entrp">   -279.99343486 </i>
    <i name="e_0_energy">   -279.99343486 </i>
   </energy>
  </scstep>
  <scstep>
   <time name="dav">   73.17   74.21</time>
   <time name="total">   73.96   75.00</time>
   <energy>
    <i name="e_fr_energy">   -279.85658499 </i>
    <i name="e_wo_entrp">   -279.85658499 </i>
    <i name="e_0_energy">   -279.85658499 </i>
   </energy>
  </scstep>
  <scstep>
   <time name="dav">   87.33   87.78</time>
   <time name="total">   88.12   88.57</time>
   <energy>
    <i name="e_fr_energy">   -279.62873075 </i>
    <i name="e_wo_entrp">   -279.62873075 </i>
    <i name="e_0_energy">   -279.62873075 </i>
   </energy>
  </scstep>
  <scstep>
   <time name="dav">   67.08   67.83</time>
   <time name="total">   67.86   68.61</time>
   <energy>
    <i name="e_fr_energy">   -279.61647502 </i>
    <i name="e_wo_entrp">   -279.61647502 </i>
    <i name="e_0_energy">   -279.61647502 </i>
   </energy>
  </scstep>
  <scstep>
   <time name="dav">   79.89   80.04</time>
   <time name="total">   80.68   80.83</time>
   <energy>
    <i name="e_fr_energy">   -279.57228205 </i>
    <i name="e_wo_entrp">   -279.57228205 </i>
    <i name="e_0_energy">   -279.57228205 </i>
   </energy>
  </scstep>
  <scstep>
   <time name="dav">   74.92   75.18</time>
   <time name="total">   75.71   75.98</time>
   <energy>
    <i name="e_fr_energy">   -279.50355768 </i>
    <i name="e_wo_entrp">   -279.50355768 </i>
    <i name="e_0_energy">   -279.50355768 </i>
   </energy>
  </scstep>
  <scstep>
   <time name="dav">   78.67   78.82</time>
   <time name="total">   79.46   79.61</time>
   <energy>
    <i name="e_fr_energy">   -279.48829089 </i>
    <i name="e_wo_entrp">   -279.48829089 </i>
    <i name="e_0_energy">   -279.48829089 </i>
   </energy>
  </scstep>
  <scstep>
   <time name="dav">   68.92   68.93</time>
   <time name="total">   69.71   69.73</time>
   <energy>
    <i name="e_fr_energy">   -279.48685216 </i>
    <i name="e_wo_entrp">   -279.48685216 </i>
    <i name="e_0_energy">   -279.48685216 </i>
   </energy>
  </scstep>
  <scstep>
   <time name="dav">   83.71   83.86</time>
   <time name="total">   84.50   84.65</time>
   <energy>
    <i name="e_fr_energy">   -279.48407029 </i>
    <i name="e_wo_entrp">   -279.48407029 </i>
    <i name="e_0_energy">   -279.48407029 </i>
   </energy>
  </scstep>
  <scstep>
   <time name="dav">   78.17   80.01</time>
   <time name="total">   78.96   80.80</time>
   <energy>
    <i name="e_fr_energy">   -279.48272851 </i>
    <i name="e_wo_entrp">   -279.48272851 </i>
    <i name="e_0_energy">   -279.48272851 </i>
   </energy>
  </scstep>
  <scstep>
   <time name="dav">   70.75   70.77</time>
   <time name="total">   71.54   71.58</time>
   <energy>
    <i name="e_fr_energy">   -279.48273333 </i>
    <i name="e_wo_entrp">   -279.48273333 </i>
    <i name="e_0_energy">   -279.48273333 </i>
   </energy>
  </scstep>
  <scstep>
   <time name="dav">   68.57   68.60</time>
   <time name="total">   69.36   69.39</time>
   <energy>
    <i name="e_fr_energy">   -279.48271173 </i>
    <i name="e_wo_entrp">   -279.48271173 </i>
    <i name="e_0_energy">   -279.48271173 </i>
   </energy>
  </scstep>
  <scstep>
   <time name="dav">   70.19   70.23</time>
   <time name="total">   70.98   71.02</time>
   <energy>
    <i name="e_fr_energy">   -279.48269605 </i>
    <i name="e_wo_entrp">   -279.48269605 </i>
    <i name="e_0_energy">   -279.48269605 </i>
   </energy>
  </scstep>
  <scstep>
   <time name="dav">   76.06   76.14</time>
   <time name="total">   76.85   76.93</time>
   <energy>
    <i name="e_fr_energy">   -279.48268629 </i>
    <i name="e_wo_entrp">   -279.48268629 </i>
    <i name="e_0_energy">   -279.48268629 </i>
   </energy>
  </scstep>
  <scstep>
   <time name="dav">   60.61   60.64</time>
   <time name="total">   61.40   61.44</time>
   <energy>
    <i name="e_fr_energy">   -279.48267717 </i>
    <i name="e_wo_entrp">   -279.48267717 </i>
    <i name="e_0_energy">   -279.48267717 </i>
   </energy>
  </scstep>
  <scstep>
   <time name="dav">   69.20   69.28</time>
   <time name="total">   69.99   70.08</time>
   <energy>
    <i name="e_fr_energy">   -279.48266326 </i>
    <i name="e_wo_entrp">   -279.48266326 </i>
    <i name="e_0_energy">   -279.48266326 </i>
   </energy>
  </scstep>
  <scstep>
   <time name="dav">   66.78   66.95</time>
   <time name="total">   67.58   67.75</time>
   <energy>
    <i name="e_fr_energy">   -279.48265683 </i>
    <i name="e_wo_entrp">   -279.48265683 </i>
    <i name="e_0_energy">   -279.48265683 </i>
   </energy>
  </scstep>
  <scstep>
   <time name="dav">   59.83   59.90</time>
   <time name="total">   59.90   59.97</time>
   <energy>
    <i name="alphaZ">   1054.17224280 </i>
    <i name="ewald"> -30138.61366895 </i>
    <i name="hartreedc"> -12959.71659938 </i>
    <i name="XCdc">   1197.95115111 </i>
    <i name="pawpsdc">  43583.53423118 </i>
    <i name="pawaedc"> -42812.00596958 </i>
    <i name="eentropy">      0.00000000 </i>
    <i name="bandstr">  -3848.32199378 </i>
    <i name="atom">  43643.51795008 </i>
    <i name="e_fr_energy">   -279.48265651 </i>
    <i name="e_wo_entrp">   -279.48265651 </i>
    <i name="e_0_energy">   -279.48265651 </i>
   </energy>
  </scstep>
  <structure>
   <crystal>
    <varray name="basis" >
     <v>      11.17850000       0.00000000       0.00000000 </v>
     <v>       0.00000000       9.57460000       0.00000000 </v>
     <v>       0.00000000       0.00000000      11.18240000 </v>
    </varray>
    <i name="volume">   1196.84853820 </i>
    <varray name="rec_basis" >
     <v>       0.08945744       0.00000000       0.00000000 </v>
     <v>       0.00000000       0.10444301       0.00000000 </v>
     <v>       0.00000000       0.00000000       0.08942624 </v>
    </varray>
   </crystal>
   <varray name="positions" >
    <v>       0.87461000       0.00017000       0.18687000 </v>
    <v>       0.37461000       0.00017000       0.68687000 </v>
    <v>       0.87539000       0.00017000       0.93687000 </v>
    <v>       0.87461000       0.00017000       0.68687000 </v>
    <v>       0.87539000       0.00017000       0.43687000 </v>
    <v>       0.62461000       0.99984000       0.18687000 </v>
    <v>       0.12539000       0.99984000       0.93687000 </v>
    <v>       0.37539000       0.00017000       0.93687000 </v>
    <v>       0.12461000       0.99984000       0.68687000 </v>
    <v>       0.62539000       0.99984000       0.93687000 </v>
    <v>       0.00013000       0.29519000       0.06281000 </v>
    <v>       0.25013000       0.70481000       0.06281000 </v>
    <v>       0.24987000       0.29519000       0.31282000 </v>
    <v>       0.49987000       0.70481000       0.31282000 </v>
    <v>       0.50013000       0.29519000       0.06281000 </v>
    <v>       0.75013000       0.70481000       0.06281000 </v>
    <v>       0.74987000       0.29519000       0.31282000 </v>
    <v>       0.99987000       0.70481000       0.31282000 </v>
    <v>       0.00013000       0.29519000       0.56281000 </v>
    <v>       0.25013000       0.70481000       0.56281000 </v>
    <v>       0.24987000       0.29519000       0.81282000 </v>
    <v>       0.49987000       0.70481000       0.81282000 </v>
    <v>       0.50013000       0.29519000       0.56281000 </v>
    <v>       0.75013000       0.70481000       0.56281000 </v>
    <v>       0.74987000       0.29519000       0.81282000 </v>
    <v>       0.99987000       0.70481000       0.81282000 </v>
    <v>       0.25005000       0.32677000       0.06286000 </v>
    <v>       0.00005000       0.67323000       0.06286000 </v>
    <v>       0.49995000       0.32677000       0.31286000 </v>
    <v>       0.24995000       0.67323000       0.31286000 </v>
    <v>       0.75005000       0.32677000       0.06286000 </v>
    <v>       0.50005000       0.67323000       0.06286000 </v>
    <v>       0.99995000       0.32677000       0.31286000 </v>
    <v>       0.74995000       0.67323000       0.31286000 </v>
    <v>       0.25005000       0.32677000       0.56286000 </v>
    <v>       0.00005000       0.67323000       0.56286000 </v>
    <v>       0.49995000       0.32677000       0.81286000 </v>
    <v>       0.24995000       0.67323000       0.81286000 </v>
    <v>       0.75005000       0.32677000       0.56286000 </v>
    <v>       0.50005000       0.67323000       0.56286000 </v>
    <v>       0.99995000       0.32677000       0.81286000 </v>
    <v>       0.74995000       0.67323000       0.81286000 </v>
    <v>       0.49987000       0.07798000       0.06246000 </v>
    <v>       0.24987000       0.92202000       0.06246000 </v>
    <v>       0.25013000       0.07798000       0.31246000 </v>
    <v>       0.00013000       0.92202000       0.31246000 </v>
    <v>       0.99987000       0.07798000       0.06246000 </v>
    <v>       0.74987000       0.92202000       0.06246000 </v>
    <v>       0.75013000       0.07798000       0.31246000 </v>
    <v>       0.50013000       0.92202000       0.31246000 </v>
    <v>       0.49987000       0.07798000       0.56246000 </v>
    <v>       0.24987000       0.92202000       0.56246000 </v>
    <v>       0.25013000       0.07798000       0.81246000 </v>
    <v>       0.00013000       0.92202000       0.81246000 </v>
    <v>       0.99987000       0.07798000       0.56246000 </v>
    <v>       0.74987000       0.92202000       0.56246000 </v>
    <v>       0.75013000       0.07798000       0.81246000 </v>
    <v>       0.50013000       0.92202000       0.81246000 </v>
   </varray>
  </structure>
  <varray name="forces" >
   <v>       0.98418410       0.02426775       0.20028277 </v>
   <v>       0.94131893      -0.01056788      -1.56872412 </v>
   <v>      -0.00951508       0.27536516       0.03093933 </v>
   <v>      -0.99412393       0.02308887      -0.17962454 </v>
   <v>      -0.04181100      -0.42718075      -0.03746347 </v>
   <v>      -1.21423386      -0.25253097       2.53333911 </v>
   <v>      -0.68246455      -0.04662376       2.30235787 </v>
   <v>      -0.01305261      -0.38381224       1.07211873 </v>
   <v>       0.30558637      -0.25922261      -2.48954125 </v>
   <v>       0.64353293       0.16145763      -1.69906142 </v>
   <v>       0.27212670       0.18605125       0.74051170 </v>
   <v>       0.00091668      -0.26657463       1.19057640 </v>
   <v>       0.16287661      -3.05090453       0.25769048 </v>
   <v>      -0.47670731       1.79038316       0.61422672 </v>
   <v>      -0.45021718       2.16698659       0.84334584 </v>
   <v>       0.14803294      -2.12208175       0.41217135 </v>
   <v>      -0.32954365       1.07096217       0.51349022 </v>
   <v>       0.65579372       0.88617885       0.11246103 </v>
   <v>       0.27612852       1.08932384      -0.63815024 </v>
   <v>       0.37215300       0.77667787      -0.97610005 </v>
   <v>       0.27421977       3.13359361      -0.50036414 </v>
   <v>       0.16796827      -1.26224831      -0.91081075 </v>
   <v>      -0.02107520      -2.61732457      -0.53998899 </v>
   <v>      -0.62447959       0.94017551      -0.25297898 </v>
   <v>      -0.22138853       0.23986156      -0.64118257 </v>
   <v>      -0.19660032      -2.15422431      -0.26142854 </v>
   <v>       0.04261338      -0.08213890      -0.78611330 </v>
   <v>      -0.15622234      -0.00756618      -0.47609792 </v>
   <v>       0.60355549       0.10373911      -0.72519918 </v>
   <v>      -0.17373694      -0.19722305      -0.27739054 </v>
   <v>      -0.14552659      -0.03604011      -0.11714487 </v>
   <v>       0.26566002       0.03786163      -0.48417752 </v>
   <v>      -0.55820444       0.11045915      -0.06097698 </v>
   <v>       0.15361285      -0.18609618      -0.45879906 </v>
   <v>      -0.52526343       0.08405849       0.87629733 </v>
   <v>      -0.02194924      -0.14081360       0.51627964 </v>
   <v>      -0.09332945      -0.05324517       0.60977252 </v>
   <v>      -0.18802727       0.04808252       0.22501415 </v>
   <v>       0.48961470       0.11026443       0.12705862 </v>
   <v>       0.02478795      -0.18646205       0.55413884 </v>
   <v>       0.18108604      -0.08783003       0.04447921 </v>
   <v>       0.09279186       0.03730648       0.40503072 </v>
   <v>       1.23797288      -1.72779493      -1.43131799 </v>
   <v>       0.08743124       0.51205486      -2.63813455 </v>
   <v>      -0.07661931       2.60600166      -0.11652223 </v>
   <v>      -1.85573289      -0.64681486       0.36494874 </v>
   <v>      -0.27101718      -0.31513401      -1.53138932 </v>
   <v>      -0.98327804       1.72250780      -0.20197659 </v>
   <v>       0.64509416      -0.68454639      -1.02893801 </v>
   <v>       1.25903651      -1.41801751      -1.40544223 </v>
   <v>      -0.51637364       2.20240358       0.85150315 </v>
   <v>      -0.72769155      -0.48860237       2.21246375 </v>
   <v>      -0.61285120      -2.41775692       0.60598760 </v>
   <v>       1.08314934       1.80841437       0.07671998 </v>
   <v>      -0.57323134      -0.72237023       1.07843499 </v>
   <v>       1.86473246      -0.65930190      -0.30830954 </v>
   <v>       0.24081123      -0.38032767       1.45217073 </v>
   <v>      -0.72252098       1.14385046       1.91953736 </v>
  </varray>
  <varray name="stress" >
   <v>       3.55427054      -0.35391542       4.33805695 </v>
   <v>      -0.35391552      -9.83839646       0.23486637 </v>
   <v>       4.33805706       0.23486629      -2.26281097 </v>
  </varray>
  <energy>
   <i name="e_fr_energy">   -291.06880117 </i>
   <i name="e_wo_entrp">   -291.06880117 </i>
   <i name="e_0_energy">      0.00000000 </i>
  </energy>
  <time name="totalsc"> 2248.38 2260.28</time>
 </calculation>
 <calculation>
  <scstep>
   <time name="dav">   67.64   67.66</time>
   <time name="total">   68.53   68.56</time>
   <energy>
    <i name="alphaZ">   1059.81668484 </i>
    <i name="ewald"> -30185.34006913 </i>
    <i name="hartreedc"> -12969.74924259 </i>
    <i name="XCdc">   1201.29454569 </i>
    <i name="pawpsdc">  43583.48408414 </i>
    <i name="pawaedc"> -42811.95587259 </i>
    <i name="eentropy">      0.00000000 </i>
    <i name="bandstr">  -3798.86829938 </i>
    <i name="atom">  43643.51795008 </i>
    <i name="e_fr_energy">   -277.80021893 </i>
    <i name="e_wo_entrp">   -277.80021893 </i>
    <i name="e_0_energy">   -277.80021893 </i>
   </energy>
  </scstep>
  <scstep>
   <time name="dav">   69.88   69.90</time>
   <time name="total">   70.66   70.68</time>
   <energy>
    <i name="e_fr_energy">   -283.46653823 </i>
    <i name="e_wo_entrp">   -283.46653823 </i>
    <i name="e_0_energy">   -283.46653823 </i>
   </energy>
  </scstep>
  <scstep>
   <time name="dav">   83.87   83.89</time>
   <time name="total">   84.65   84.67</time>
   <energy>
    <i name="e_fr_energy">   -283.24356527 </i>
    <i name="e_wo_entrp">   -283.24356527 </i>
    <i name="e_0_energy">   -283.24356527 </i>
   </energy>
  </scstep>
  <scstep>
   <time name="dav">   75.35   75.37</time>
   <time name="total">   76.13   76.15</time>
   <energy>
    <i name="e_fr_energy">   -283.10584457 </i>
    <i name="e_wo_entrp">   -283.10584457 </i>
    <i name="e_0_energy">   -283.10584457 </i>
   </energy>
  </scstep>
  <scstep>
   <time name="dav">   76.47   76.75</time>
   <time name="total">   77.26   77.53</time>
   <energy>
    <i name="e_fr_energy">   -283.03818211 </i>
    <i name="e_wo_entrp">   -283.03818211 </i>
    <i name="e_0_energy">   -283.03818211 </i>
   </energy>
  </scstep>
  <scstep>
   <time name="dav">   79.00   80.26</time>
   <time name="total">   79.78   81.05</time>
   <energy>
    <i name="e_fr_energy">   -283.03203551 </i>
    <i name="e_wo_entrp">   -283.03203551 </i>
    <i name="e_0_energy">   -283.03203551 </i>
   </energy>
  </scstep>
  <scstep>
   <time name="dav">   72.00   72.00</time>
   <time name="total">   72.78   72.78</time>
   <energy>
    <i name="e_fr_energy">   -283.03215072 </i>
    <i name="e_wo_entrp">   -283.03215072 </i>
    <i name="e_0_energy">   -283.03215072 </i>
   </energy>
  </scstep>
  <scstep>
   <time name="dav">   76.19   76.27</time>
   <time name="total">   77.03   77.12</time>
   <energy>
    <i name="e_fr_energy">   -283.03112298 </i>
    <i name="e_wo_entrp">   -283.03112298 </i>
    <i name="e_0_energy">   -283.03112298 </i>
   </energy>
  </scstep>
  <scstep>
   <time name="dav">   93.05   93.22</time>
   <time name="total">   93.86   94.03</time>
   <energy>
    <i name="e_fr_energy">   -283.03095208 </i>
    <i name="e_wo_entrp">   -283.03095208 </i>
    <i name="e_0_energy">   -283.03095208 </i>
   </energy>
  </scstep>
  <scstep>
   <time name="dav">   72.04   72.20</time>
   <time name="total">   72.82   72.98</time>
   <energy>
    <i name="e_fr_energy">   -283.03100487 </i>
    <i name="e_wo_entrp">   -283.03100487 </i>
    <i name="e_0_energy">   -283.03100487 </i>
   </energy>
  </scstep>
  <scstep>
   <time name="dav">   78.88   79.03</time>
   <time name="total">   79.66   79.81</time>
   <energy>
    <i name="e_fr_energy">   -283.03102197 </i>
    <i name="e_wo_entrp">   -283.03102197 </i>
    <i name="e_0_energy">   -283.03102197 </i>
   </energy>
  </scstep>
  <scstep>
   <time name="dav">   66.24   66.78</time>
   <time name="total">   67.02   67.56</time>
   <energy>
    <i name="e_fr_energy">   -283.03102891 </i>
    <i name="e_wo_entrp">   -283.03102891 </i>
    <i name="e_0_energy">   -283.03102891 </i>
   </energy>
  </scstep>
  <scstep>
   <time name="dav">   70.35   70.36</time>
   <time name="total">   71.14   71.16</time>
   <energy>
    <i name="e_fr_energy">   -283.03103105 </i>
    <i name="e_wo_entrp">   -283.03103105 </i>
    <i name="e_0_energy">   -283.03103105 </i>
   </energy>
  </scstep>
  <scstep>
   <time name="dav">   58.20   58.33</time>
   <time name="total">   58.27   58.40</time>
   <energy>
    <i name="alphaZ">   1059.81668484 </i>
    <i name="ewald"> -30185.34006913 </i>
    <i name="hartreedc"> -12938.63923571 </i>
    <i name="XCdc">   1200.43119085 </i>
    <i name="pawpsdc">  43823.80046042 </i>
    <i name="pawaedc"> -43054.84358348 </i>
    <i name="eentropy">      0.00000000 </i>
    <i name="bandstr">  -3831.77442925 </i>
    <i name="atom">  43643.51795008 </i>
    <i name="e_fr_energy">   -283.03103137 </i>
    <i name="e_wo_entrp">   -283.03103137 </i>
    <i name="e_0_energy">   -283.03103137 </i>
   </energy>
  </scstep>
  <structure>
   <crystal>
    <varray name="basis" >
     <v>      11.20318686      -0.00245819       0.03013080 </v>
     <v>      -0.00210548       9.51607024       0.00139725 </v>
     <v>       0.03014131       0.00163188      11.16667774 </v>
    </varray>
    <i name="volume">   1190.47428282 </i>
    <varray name="rec_basis" >
     <v>       0.08926097       0.00001978      -0.00024094 </v>
     <v>       0.00002310       0.10508540      -0.00001542 </v>
     <v>      -0.00024085      -0.00001320       0.08955280 </v>
    </varray>
   </crystal>
   <varray name="positions" >
    <v>       0.87885741       0.00029228       0.18773405 </v>
    <v>       0.37867242       0.00011675       0.68010227 </v>
    <v>       0.87534894       0.00155746       0.93700348 </v>
    <v>       0.87031969       0.00028634       0.68609507 </v>
    <v>       0.87520956      -0.00198240       0.43670838 </v>
    <v>       0.61936977       0.99856760       0.19779923 </v>
    <v>       0.12244471       0.99960508       0.94680274 </v>
    <v>       0.37533367      -0.00176388       0.94149529 </v>
    <v>       0.12592881       0.99853388       0.67612972 </v>
    <v>       0.62816727       0.00065352       0.92953998 </v>
    <v>       0.00130441       0.29612744       0.06600469 </v>
    <v>       0.25013396       0.70346683       0.06794634 </v>
    <v>       0.25057292       0.27981769       0.31393172 </v>
    <v>       0.49781269       0.71383104       0.31546987 </v>
    <v>       0.49818701       0.30610860       0.06644833 </v>
    <v>       0.75076886       0.69411766       0.06458817 </v>
    <v>       0.74844780       0.30058616       0.31503528 </v>
    <v>       0.00270019       0.70927511       0.31330517 </v>
    <v>       0.00132168       0.30067868       0.56005692 </v>
    <v>       0.25173609       0.70872338       0.55859895 </v>
    <v>       0.25105344       0.31097895       0.81066135 </v>
    <v>       0.50059489       0.69845003       0.80889062 </v>
    <v>       0.50003905       0.28200233       0.56048040 </v>
    <v>       0.74743496       0.70954718       0.56171861 </v>
    <v>       0.74891456       0.29639857       0.81005384 </v>
    <v>       0.99902154       0.69395571       0.81169216 </v>
    <v>       0.25023391       0.32635613       0.05946858 </v>
    <v>      -0.00062420       0.67319188       0.06080604 </v>
    <v>       0.50255474       0.32729270       0.30973138 </v>
    <v>       0.24920021       0.67223627       0.31166329 </v>
    <v>       0.74942196       0.32658841       0.06235462 </v>
    <v>       0.50119650       0.67342077       0.06077118 </v>
    <v>       0.99754098       0.32732656       0.31259694 </v>
    <v>       0.75061294       0.67229233       0.31088067 </v>
    <v>       0.24778314       0.32719354       0.56664049 </v>
    <v>      -0.00004473       0.67252050       0.56508731 </v>
    <v>       0.49954722       0.32650172       0.81549066 </v>
    <v>       0.24913854       0.67347227       0.81383075 </v>
    <v>       0.75216301       0.32732558       0.56340815 </v>
    <v>       0.50015698       0.67229049       0.56525064 </v>
    <v>       0.00073151       0.32632746       0.81305189 </v>
    <v>       0.75035046       0.67341797       0.81460737 </v>
    <v>       0.50521268       0.06927432       0.05628507 </v>
    <v>       0.25024732       0.92460004       0.05107867 </v>
    <v>       0.24979934       0.09111062       0.31195730 </v>
    <v>      -0.00787872       0.91876095       0.31403445 </v>
    <v>       0.99870038       0.07639216       0.05585334 </v>
    <v>       0.74562650       0.93069904       0.06158864 </v>
    <v>       0.75291401       0.07453084       0.30802100 </v>
    <v>       0.50556358       0.91487517       0.30639670 </v>
    <v>       0.49764150       0.08907705       0.56613352 </v>
    <v>       0.24672953       0.91955812       0.57200492 </v>
    <v>       0.24748514       0.06579787       0.81507433 </v>
    <v>       0.00480451       0.93113189       0.81279098 </v>
    <v>       0.99739613       0.07434026       0.56711254 </v>
    <v>       0.75791756       0.91869804       0.56112990 </v>
    <v>       0.75116926       0.07606368       0.81872490 </v>
    <v>       0.49701184       0.92778341       0.82074119 </v>
   </varray>
  </structure>
  <varray name="forces" >
   <v>       0.50092841       0.01922845      -0.08017856 </v>
   <v>       0.56992540      -0.03027434      -0.72204824 </v>
   <v>      -0.01243811       0.15747230       0.00955805 </v>
   <v>      -0.53542254       0.02886888       0.11548012 </v>
   <v>      -0.02637391       0.00671460       0.00658984 </v>
   <v>      -0.15241164       0.27536379       0.31901196 </v>
   <v>      -0.24221717      -0.03338623       0.24743594 </v>
   <v>       0.01770977       0.03652634       0.32753557 </v>
   <v>      -0.19601098       0.14749734      -0.19207321 </v>
   <v>       0.17347400      -0.05135527      -0.36717131 </v>
   <v>       0.07662651      -0.03354161       0.28562389 </v>
   <v>       0.08568155       0.29179284       0.40771821 </v>
   <v>       0.07967610       4.73641200       0.15754637 </v>
   <v>      -0.30851469      -1.75682127       0.31697435 </v>
   <v>      -0.11094643      -0.16985947       0.32566680 </v>
   <v>      -0.06889338       0.22528375       0.21501396 </v>
   <v>      -0.13107101       0.06751307       0.09690709 </v>
   <v>       0.32853141      -0.61479930       0.03382448 </v>
   <v>       0.16667226       0.04200314      -0.19215279 </v>
   <v>       0.11289143      -0.39186032      -0.34885032 </v>
   <v>       0.05118874      -0.00005050      -0.21532619 </v>
   <v>      -0.05330210       0.28731667      -0.25143238 </v>
   <v>       0.08247019       3.68361893      -0.36818423 </v>
   <v>      -0.32847552      -0.65802284      -0.09974762 </v>
   <v>      -0.06702553      -0.08554356      -0.21203739 </v>
   <v>       0.09513111       0.24616384      -0.15126714 </v>
   <v>      -0.03172854       0.06967478      -0.41591727 </v>
   <v>      -0.01575467      -0.05311120      -0.18197907 </v>
   <v>       0.44761618       0.05069465      -0.46295985 </v>
   <v>      -0.09397811      -0.02333006      -0.16500957 </v>
   <v>      -0.04075748       0.25135199      -0.05350141 </v>
   <v>       0.07834174      -0.23686306      -0.16616195 </v>
   <v>      -0.39166922       0.09571537      -0.04101100 </v>
   <v>       0.04766961      -0.24756219      -0.19951965 </v>
   <v>      -0.32530811       0.11853505       0.55757840 </v>
   <v>       0.02148730      -0.20283603       0.22339052 </v>
   <v>       0.01626494       0.16016655       0.24983103 </v>
   <v>      -0.06577386      -0.36841122       0.06453955 </v>
   <v>       0.30421718       0.06663466       0.07197658 </v>
   <v>      -0.00981925      -0.03823567       0.30252450 </v>
   <v>       0.04535311       0.23382313       0.01682724 </v>
   <v>       0.00753670      -0.03808202       0.13376300 </v>
   <v>       0.78898979       0.72767874      -0.51852961 </v>
   <v>      -0.01345528      -0.66341384      -0.98840044 </v>
   <v>      -0.07153882      -5.35544832      -0.11346368 </v>
   <v>      -1.29079392       0.66833259       0.23273275 </v>
   <v>      -0.48920352       0.26592846      -0.52178759 </v>
   <v>      -0.52968659      -0.67628265       0.07166230 </v>
   <v>       0.52759423       0.33027225      -0.38634872 </v>
   <v>       0.51599309       1.61550838      -0.52705828 </v>
   <v>      -0.50487557      -4.09823183       0.71912029 </v>
   <v>       0.09229735       0.16568209       0.93731340 </v>
   <v>      -0.31578951       0.71745443       0.24756247 </v>
   <v>       0.49509949      -0.68781293      -0.02914677 </v>
   <v>      -0.67810086       0.38877315       0.28937840 </v>
   <v>       1.29694139       0.74317621      -0.24637813 </v>
   <v>       0.46866505       0.31766983       0.49379265 </v>
   <v>      -0.39363773      -0.72371251       0.74076265 </v>
  </varray>
  <varray name="stress" >
   <v>       7.34387277       0.52399165      -3.87986374 </v>
   <v>       0.52399154      12.24406841      -1.04017237 </v>
   <v>      -3.87986386      -1.04017226       8.45101375 </v>
  </varray>
  <energy>
   <i name="e_fr_energy">   -294.68862210 </i>
   <i name="e_wo_entrp">   -294.68862210 </i>
   <i name="e_0_energy">      0.00000000 </i>
  </energy>
  <time name="totalsc"> 1156.86 1160.62</time>
 </calculation>
 <calculation>
  <scstep>
   <time name="dav">   66.50   67.91</time>
   <time name="total">   67.28   68.69</time>
   <energy>
    <i name="alphaZ">   1059.01597059 </i>
    <i name="ewald"> -30186.26336247 </i>
    <i name="hartreedc"> -12930.97060837 </i>
    <i name="XCdc">   1199.86056645 </i>
    <i name="pawpsdc">  43823.78697468 </i>
    <i name="pawaedc"> -43054.83022539 </i>
    <i name="eentropy">      0.00000000 </i>
    <i name="bandstr">  -3837.16664967 </i>
    <i name="atom">  43643.51795008 </i>
    <i name="e_fr_energy">   -283.04938410 </i>
    <i name="e_wo_entrp">   -283.04938410 </i>
    <i name="e_0_energy">   -283.04938410 </i>
   </energy>
  </scstep>
  <scstep>
   <time name="dav">   69.45   70.77</time>
   <time name="total">   70.23   71.55</time>
   <energy>
    <i name="e_fr_energy">   -283.16696114 </i>
    <i name="e_wo_entrp">   -283.16696114 </i>
    <i name="e_0_energy">   -283.16696114 </i>
   </energy>
  </scstep>
  <scstep>
   <time name="dav">   78.55   78.71</time>
   <time name="total">   79.33   79.49</time>
   <energy>
    <i name="e_fr_energy">   -283.16143070 </i>
    <i name="e_wo_entrp">   -283.16143070 </i>
    <i name="e_0_energy">   -283.16143070 </i>
   </energy>
  </scstep>
  <scstep>
   <time name="dav">   72.83   73.11</time>
   <time name="total">   73.61   73.90</time>
   <energy>
    <i name="e_fr_energy">   -283.15738095 </i>
    <i name="e_wo_entrp">   -283.15738095 </i>
    <i name="e_0_energy">   -283.15738095 </i>
   </energy>
  </scstep>
  <scstep>
   <time name="dav">   75.56   75.68</time>
   <time name="total">   76.41   76.53</time>
   <energy>
    <i name="e_fr_energy">   -283.15526885 </i>
    <i name="e_wo_entrp">   -283.15526885 </i>
    <i name="e_0_energy">   -283.15526885 </i>
   </energy>
  </scstep>
  <scstep>
   <time name="dav">   79.49   79.73</time>
   <time name="total">   80.27   80.52</time>
   <energy>
    <i name="e_fr_energy">   -283.15523929 </i>
    <i name="e_wo_entrp">   -283.15523929 </i>
    <i name="e_0_energy">   -283.15523929 </i>
   </energy>
  </scstep>
  <scstep>
   <time name="dav">   70.46   70.88</time>
   <time name="total">   71.24   71.67</time>
   <energy>
    <i name="e_fr_energy">   -283.15521895 </i>
    <i name="e_wo_entrp">   -283.15521895 </i>
    <i name="e_0_energy">   -283.15521895 </i>
   </energy>
  </scstep>
  <scstep>
   <time name="dav">   72.74   72.90</time>
   <time name="total">   73.52   73.69</time>
   <energy>
    <i name="e_fr_energy">   -283.15519482 </i>
    <i name="e_wo_entrp">   -283.15519482 </i>
    <i name="e_0_energy">   -283.15519482 </i>
   </energy>
  </scstep>
  <scstep>
   <time name="dav">   87.88   88.18</time>
   <time name="total">   88.66   88.96</time>
   <energy>
    <i name="e_fr_energy">   -283.15519265 </i>
    <i name="e_wo_entrp">   -283.15519265 </i>
    <i name="e_0_energy">   -283.15519265 </i>
   </energy>
  </scstep>
  <scstep>
   <time name="dav">   63.94   64.34</time>
   <time name="total">   64.80   65.20</time>
   <energy>
    <i name="e_fr_energy">   -283.15519445 </i>
    <i name="e_wo_entrp">   -283.15519445 </i>
    <i name="e_0_energy">   -283.15519445 </i>
   </energy>
  </scstep>
  <scstep>
   <time name="dav">   44.36   44.47</time>
   <time name="total">   44.44   44.54</time>
   <energy>
    <i name="alphaZ">   1059.01597059 </i>
    <i name="ewald"> -30186.26336247 </i>
    <i name="hartreedc"> -12935.66103751 </i>
    <i name="XCdc">   1200.00668969 </i>
    <i name="pawpsdc">  43759.56177041 </i>
    <i name="pawaedc"> -42989.74730531 </i>
    <i name="eentropy">      0.00000000 </i>
    <i name="bandstr">  -3833.58587049 </i>
    <i name="atom">  43643.51795008 </i>
    <i name="e_fr_energy">   -283.15519501 </i>
    <i name="e_wo_entrp">   -283.15519501 </i>
    <i name="e_0_energy">   -283.15519501 </i>
   </energy>
  </scstep>
  <structure>
   <crystal>
    <varray name="basis" >
     <v>      11.19970937      -0.00211192       0.02588645 </v>
     <v>      -0.00180890       9.52431497       0.00120043 </v>
     <v>       0.02589548       0.00140200      11.16889244 </v>
    </varray>
    <i name="volume">   1191.37439174 </i>
    <varray name="rec_basis" >
     <v>       0.08928851       0.00001698      -0.00020702 </v>
     <v>       0.00001983       0.10499443      -0.00001323 </v>
     <v>      -0.00020695      -0.00001132       0.08953487 </v>
    </varray>
   </crystal>
   <varray name="positions" >
    <v>       0.87826074       0.00027481       0.18761378 </v>
    <v>       0.37809886       0.00012399       0.68105849 </v>
    <v>       0.87535472       0.00136082       0.93698466 </v>
    <v>       0.87092242       0.00026998       0.68620276 </v>
    <v>       0.87523492      -0.00167733       0.43673107 </v>
    <v>       0.62011049       0.99874839       0.19625550 </v>
    <v>       0.12286246       0.99963872       0.94540047 </v>
    <v>       0.37534339      -0.00148968       0.94084278 </v>
    <v>       0.12573940       0.99871869       0.67764526 </v>
    <v>       0.62777411       0.00053794       0.93057504 </v>
    <v>       0.00114053       0.29599461       0.06555449 </v>
    <v>       0.25013539       0.70365733       0.06722176 </v>
    <v>       0.25047495       0.28199641       0.31377489 </v>
    <v>       0.49810262       0.71255262       0.31509545 </v>
    <v>       0.49846120       0.30456126       0.06593455 </v>
    <v>       0.75068003       0.69563311       0.06433739 </v>
    <v>       0.74864839       0.29982146       0.31472234 </v>
    <v>       0.00230245       0.70864217       0.31323789 </v>
    <v>       0.00115299       0.29990065       0.56044583 </v>
    <v>       0.25150864       0.70816857       0.55919365 </v>
    <v>       0.25088586       0.30874108       0.81096659 </v>
    <v>       0.50049169       0.69935131       0.80944507 </v>
    <v>       0.50005130       0.28387137       0.56080875 </v>
    <v>       0.74781322       0.70887585       0.56187163 </v>
    <v>       0.74904777       0.29622724       0.81044370 </v>
    <v>       0.99914066       0.69549410       0.81185074 </v>
    <v>       0.25020678       0.32641470       0.05994705 </v>
    <v>      -0.00053022       0.67319725       0.06109552 </v>
    <v>       0.50218743       0.32721845       0.31017371 </v>
    <v>       0.24930517       0.67237711       0.31183180 </v>
    <v>       0.74951004       0.32661416       0.06242567 </v>
    <v>       0.50103456       0.67339364       0.06106628 </v>
    <v>       0.99787946       0.32724776       0.31263314 </v>
    <v>       0.75051904       0.67242516       0.31116011 </v>
    <v>       0.24810318       0.32713368       0.56610635 </v>
    <v>      -0.00003055       0.67262111       0.56477307 </v>
    <v>       0.49960484       0.32653982       0.81511941 </v>
    <v>       0.24925295       0.67343799       0.81369351 </v>
    <v>       0.75186621       0.32724677       0.56333164 </v>
    <v>       0.50014287       0.67242370       0.56491343 </v>
    <v>       0.00062175       0.32639016       0.81302511 </v>
    <v>       0.75029483       0.67339136       0.81436103 </v>
    <v>       0.50445963       0.07050783       0.05715799 </v>
    <v>       0.25018990       0.92423408       0.05268435 </v>
    <v>       0.24984527       0.08924961       0.31202832 </v>
    <v>      -0.00675237       0.91922319       0.31380925 </v>
    <v>       0.99886231       0.07661709       0.05678483 </v>
    <v>       0.74622238       0.92946909       0.06171010 </v>
    <v>       0.75252111       0.07501948       0.30864817 </v>
    <v>       0.50479775       0.91588746       0.30725394 </v>
    <v>       0.49795583       0.08750443       0.56561467 </v>
    <v>       0.24717462       0.91990739       0.57065725 </v>
    <v>       0.24785820       0.06752461       0.81470432 </v>
    <v>       0.00414737       0.92984030       0.81274623 </v>
    <v>       0.99774570       0.07485632       0.56645523 </v>
    <v>       0.75678602       0.91916853       0.56132052 </v>
    <v>       0.75102562       0.07633539       0.81784151 </v>
    <v>       0.49745310       0.92696688       0.81957194 </v>
   </varray>
  </structure>
  <varray name="forces" >
   <v>       0.56674393       0.01802813      -0.03828732 </v>
   <v>       0.62519100      -0.01970862      -0.84413647 </v>
   <v>      -0.01168663       0.17369789       0.01307325 </v>
   <v>      -0.59874677       0.02576909       0.07121347 </v>
   <v>      -0.02732413      -0.06216185      -0.00065836 </v>
   <v>      -0.35340277       0.15496588       0.66298309 </v>
   <v>      -0.30654541      -0.02767512       0.55343465 </v>
   <v>      -0.00512438      -0.03666364       0.44550149 </v>
   <v>      -0.07790714       0.06305161      -0.53963447 </v>
   <v>       0.25390485      -0.01029523      -0.55933825 </v>
   <v>       0.10471503      -0.00615146       0.35699034 </v>
   <v>       0.07499264       0.21722592       0.52930795 </v>
   <v>       0.08249885       2.82308614       0.15419249 </v>
   <v>      -0.30839322      -1.07289582       0.33072816 </v>
   <v>      -0.16074378       0.05572660       0.41435448 </v>
   <v>      -0.03961994      -0.00749112       0.24803714 </v>
   <v>      -0.16261673       0.18694256       0.15750453 </v>
   <v>       0.36812854      -0.36787363       0.04673021 </v>
   <v>       0.18631138       0.16323843      -0.26198824 </v>
   <v>       0.14722013      -0.20838116      -0.43005578 </v>
   <v>       0.08171825       0.26289414      -0.26322022 </v>
   <v>      -0.02391646       0.11416242      -0.35559822 </v>
   <v>       0.04801464       2.27044051      -0.35412811 </v>
   <v>      -0.36146664      -0.39414353      -0.12390932 </v>
   <v>      -0.08865654      -0.04532019      -0.27654008 </v>
   <v>       0.05697081       0.01013916      -0.17030403 </v>
   <v>      -0.02118652       0.05413704      -0.47911470 </v>
   <v>      -0.03658912      -0.04818427      -0.22546179 </v>
   <v>       0.47938241       0.06395896      -0.51210147 </v>
   <v>      -0.10733063      -0.04890496      -0.18517253 </v>
   <v>      -0.05550246       0.21446074      -0.06465816 </v>
   <v>       0.10656713      -0.20173117      -0.21252307 </v>
   <v>      -0.42146817       0.10144876      -0.04529989 </v>
   <v>       0.06338317      -0.24028712      -0.24070114 </v>
   <v>      -0.35697479       0.11985703       0.62192889 </v>
   <v>       0.01369029      -0.19478016       0.26992620 </v>
   <v>      -0.00000820       0.13527922       0.30211904 </v>
   <v>      -0.08396352      -0.31445871       0.08689424 </v>
   <v>       0.33153004       0.07499868       0.08327992 </v>
   <v>      -0.00256691      -0.06146678       0.34602491 </v>
   <v>       0.06484134       0.19330947       0.02100510 </v>
   <v>       0.02005332      -0.02942684       0.17222425 </v>
   <v>       0.85955047       0.47679729      -0.66490590 </v>
   <v>       0.00527271      -0.47652768      -1.26330809 </v>
   <v>      -0.06557239      -3.43018935      -0.09646687 </v>
   <v>      -1.36785786       0.45431672       0.25437842 </v>
   <v>      -0.43434119       0.17112975      -0.68951164 </v>
   <v>      -0.59982636      -0.42871912       0.03252880 </v>
   <v>       0.54710633       0.20940458      -0.48224957 </v>
   <v>       0.64610460       1.04879945      -0.66672407 </v>
   <v>      -0.48867869      -2.69790742       0.69936222 </v>
   <v>      -0.07028376       0.08731511       1.14711054 </v>
   <v>      -0.36229005       0.43860901       0.30406644 </v>
   <v>       0.58175105      -0.43333355      -0.01319022 </v>
   <v>      -0.65953661       0.25215942       0.41155120 </v>
   <v>       1.37285589       0.51418398      -0.25774670 </v>
   <v>       0.41608426       0.21180184       0.65013228 </v>
   <v>      -0.44445529      -0.49665702       0.93035101 </v>
  </varray>
  <varray name="stress" >
   <v>       6.31285206       0.26216257      -2.60292890 </v>
   <v>       0.26216250       4.52119685      -0.71109029 </v>
   <v>      -2.60292878      -0.71109020       6.51966662 </v>
  </varray>
  <energy>
   <i name="e_fr_energy">   -294.80175832 </i>
   <i name="e_wo_entrp">   -294.80175832 </i>
   <i name="e_0_energy">      0.00000000 </i>
  </energy>
  <time name="totalsc">  897.49  903.04</time>
 </calculation>
 <calculation>
  <scstep>
   <time name="dav">   68.82   68.92</time>
   <time name="total">   69.60   69.70</time>
   <energy>
    <i name="alphaZ">   1049.89493998 </i>
    <i name="ewald"> -30205.55871656 </i>
    <i name="hartreedc"> -12798.52174114 </i>
    <i name="XCdc">   1194.44396172 </i>
    <i name="pawpsdc">  43759.78760194 </i>
    <i name="pawaedc"> -42989.97446819 </i>
    <i name="eentropy">      0.00000000 </i>
    <i name="bandstr">  -3935.40243618 </i>
    <i name="atom">  43643.51795008 </i>
    <i name="e_fr_energy">   -281.81290835 </i>
    <i name="e_wo_entrp">   -281.81290835 </i>
    <i name="e_0_energy">   -281.81290835 </i>
   </energy>
  </scstep>
  <scstep>
   <time name="dav">   69.72   70.32</time>
   <time name="total">   70.50   71.10</time>
   <energy>
    <i name="e_fr_energy">   -284.43148068 </i>
    <i name="e_wo_entrp">   -284.43148068 </i>
    <i name="e_0_energy">   -284.43148068 </i>
   </energy>
  </scstep>
  <scstep>
   <time name="dav">   81.70   83.25</time>
   <time name="total">   82.52   84.07</time>
   <energy>
    <i name="e_fr_energy">   -284.24925247 </i>
    <i name="e_wo_entrp">   -284.24925247 </i>
    <i name="e_0_energy">   -284.24925247 </i>
   </energy>
  </scstep>
  <scstep>
   <time name="dav">   69.66   69.65</time>
   <time name="total">   70.44   70.43</time>
   <energy>
    <i name="e_fr_energy">   -284.16752361 </i>
    <i name="e_wo_entrp">   -284.16752361 </i>
    <i name="e_0_energy">   -284.16752361 </i>
   </energy>
  </scstep>
  <scstep>
   <time name="dav">   75.72   76.39</time>
   <time name="total">   76.50   77.17</time>
   <energy>
    <i name="e_fr_energy">   -284.12261501 </i>
    <i name="e_wo_entrp">   -284.12261501 </i>
    <i name="e_0_energy">   -284.12261501 </i>
   </energy>
  </scstep>
  <scstep>
   <time name="dav">   72.29   73.93</time>
   <time name="total">   73.07   74.71</time>
   <energy>
    <i name="e_fr_energy">   -284.11159102 </i>
    <i name="e_wo_entrp">   -284.11159102 </i>
    <i name="e_0_energy">   -284.11159102 </i>
   </energy>
  </scstep>
  <scstep>
   <time name="dav">   76.28   76.47</time>
   <time name="total">   77.06   77.26</time>
   <energy>
    <i name="e_fr_energy">   -284.11192903 </i>
    <i name="e_wo_entrp">   -284.11192903 </i>
    <i name="e_0_energy">   -284.11192903 </i>
   </energy>
  </scstep>
  <scstep>
   <time name="dav">   86.04   86.12</time>
   <time name="total">   86.82   86.90</time>
   <energy>
    <i name="e_fr_energy">   -284.11171129 </i>
    <i name="e_wo_entrp">   -284.11171129 </i>
    <i name="e_0_energy">   -284.11171129 </i>
   </energy>
  </scstep>
  <scstep>
   <time name="dav">   71.07   71.11</time>
   <time name="total">   71.85   71.89</time>
   <energy>
    <i name="e_fr_energy">   -284.11155580 </i>
    <i name="e_wo_entrp">   -284.11155580 </i>
    <i name="e_0_energy">   -284.11155580 </i>
   </energy>
  </scstep>
  <scstep>
   <time name="dav">   82.03   82.69</time>
   <time name="total">   82.81   83.47</time>
   <energy>
    <i name="e_fr_energy">   -284.11154680 </i>
    <i name="e_wo_entrp">   -284.11154680 </i>
    <i name="e_0_energy">   -284.11154680 </i>
   </energy>
  </scstep>
  <scstep>
   <time name="dav">   72.62   72.62</time>
   <time name="total">   73.40   73.40</time>
   <energy>
    <i name="e_fr_energy">   -284.11155487 </i>
    <i name="e_wo_entrp">   -284.11155487 </i>
    <i name="e_0_energy">   -284.11155487 </i>
   </energy>
  </scstep>
  <scstep>
   <time name="dav">   73.84   73.83</time>
   <time name="total">   74.63   74.62</time>
   <energy>
    <i name="e_fr_energy">   -284.11155908 </i>
    <i name="e_wo_entrp">   -284.11155908 </i>
    <i name="e_0_energy">   -284.11155908 </i>
   </energy>
  </scstep>
  <scstep>
   <time name="dav">   59.40   59.57</time>
   <time name="total">   60.29   60.46</time>
   <energy>
    <i name="e_fr_energy">   -284.11156286 </i>
    <i name="e_wo_entrp">   -284.11156286 </i>
    <i name="e_0_energy">   -284.11156286 </i>
   </energy>
  </scstep>
  <scstep>
   <time name="dav">   54.92   54.92</time>
   <time name="total">   55.70   55.70</time>
   <energy>
    <i name="e_fr_energy">   -284.11156407 </i>
    <i name="e_wo_entrp">   -284.11156407 </i>
    <i name="e_0_energy">   -284.11156407 </i>
   </energy>
  </scstep>
  <scstep>
   <time name="dav">   44.53   44.61</time>
   <time name="total">   44.60   44.68</time>
   <energy>
    <i name="alphaZ">   1049.89493998 </i>
    <i name="ewald"> -30205.55871656 </i>
    <i name="hartreedc"> -12876.00226618 </i>
    <i name="XCdc">   1198.04287268 </i>
    <i name="pawpsdc">  43401.24249498 </i>
    <i name="pawaedc"> -42626.06921260 </i>
    <i name="eentropy">      0.00000000 </i>
    <i name="bandstr">  -3869.17962658 </i>
    <i name="atom">  43643.51795008 </i>
    <i name="e_fr_energy">   -284.11156419 </i>
    <i name="e_wo_entrp">   -284.11156419 </i>
    <i name="e_0_energy">   -284.11156419 </i>
   </energy>
  </scstep>
  <structure>
   <crystal>
    <varray name="basis" >
     <v>      11.25040439      -0.00117635       0.01848072 </v>
     <v>      -0.00101270       9.53085935      -0.00240345 </v>
     <v>       0.01853759      -0.00282729      11.20742772 </v>
    </varray>
    <i name="volume">   1201.72453429 </i>
    <varray name="rec_basis" >
     <v>       0.08888594       0.00000941      -0.00014702 </v>
     <v>       0.00001093       0.10492234       0.00002645 </v>
     <v>      -0.00014657       0.00002249       0.08922679 </v>
    </varray>
[...]
       <r>    8.8495    0.0000 </r>
       <r>    8.9119    0.0000 </r>
       <r>    9.0011    0.0000 </r>
       <r>    9.0261    0.0000 </r>
       <r>    9.1225    0.0000 </r>
       <r>    9.4182    0.0000 </r>
       <r>    9.7098    0.0000 </r>
       <r>   10.0340    0.0000 </r>
       <r>   10.2106    0.0000 </r>
       <r>   10.2924    0.0000 </r>
       <r>   10.4720    0.0000 </r>
      </set>
     </set>
    </set>
   </array>
  </eigenvalues>
  <separator name="orbital magnetization" >
   <v name="MAGDIPOLOUT">      0.00000000      0.00000000      0.00000000</v>
  </separator>
  <dos>
   <i name="efermi">      4.17347156 </i>
   <total>
    <array>
     <dimension dim="1">gridpoints</dimension>
     <dimension dim="2">spin</dimension>
     <field>energy</field>
     <field>total</field>
     <field>integrated</field>
     <set>
      <set comment="spin 1">
       <r>   -42.4000     0.0000     0.0000 </r>
       <r>   -42.2154     0.0000     0.0000 </r>
       <r>   -42.0308     0.0000     0.0000 </r>
       <r>   -41.8461     0.0000     0.0000 </r>
       <r>   -41.6615     0.0000     0.0000 </r>
       <r>   -41.4769     0.0000     0.0000 </r>
       <r>   -41.2922     0.0000     0.0000 </r>
       <r>   -41.1076     0.0000     0.0000 </r>
       <r>   -40.9230     0.0000     0.0000 </r>
       <r>   -40.7383     0.0000     0.0000 </r>
       <r>   -40.5537     0.0000     0.0000 </r>
       <r>   -40.3691     0.0000     0.0000 </r>
       <r>   -40.1844     0.0000     0.0000 </r>
       <r>   -39.9998     0.0000     0.0000 </r>
       <r>   -39.8152     0.0000     4.0000 </r>
       <r>   -39.6305     0.0000     4.0000 </r>
       <r>   -39.4459     0.0000     6.0000 </r>
       <r>   -39.2613     0.0000     8.0000 </r>
       <r>   -39.0766     0.0000     8.0000 </r>
       <r>   -38.8920     0.0000     8.0000 </r>
       <r>   -38.7074     0.0000     8.0000 </r>
       <r>   -38.5227     0.0000     8.0000 </r>
       <r>   -38.3381     0.0000     8.0000 </r>
       <r>   -38.1535     0.0000     8.0000 </r>
       <r>   -37.9688     0.0000     8.0000 </r>
       <r>   -37.7842     0.0000     8.0000 </r>
       <r>   -37.5996     0.0000     8.0000 </r>
       <r>   -37.4150     0.0000     8.0000 </r>
       <r>   -37.2303     0.0000     8.0000 </r>
       <r>   -37.0457     0.0000     8.0000 </r>
       <r>   -36.8611     0.0000     8.0000 </r>
       <r>   -36.6764     0.0000     8.0000 </r>
       <r>   -36.4918     0.0000     8.0000 </r>
       <r>   -36.3072     0.0000     8.0000 </r>
       <r>   -36.1225     0.0000     8.0000 </r>
       <r>   -35.9379     0.0000     8.0000 </r>
       <r>   -35.7533     0.0000     8.0000 </r>
       <r>   -35.5686     0.0000     8.0000 </r>
       <r>   -35.3840     0.0000     8.0000 </r>
       <r>   -35.1994     0.0000     8.0000 </r>
       <r>   -35.0147     0.0000     8.0000 </r>
       <r>   -34.8301     0.0000     8.0000 </r>
       <r>   -34.6455     0.0000     8.0000 </r>
       <r>   -34.4608     0.0000     8.0000 </r>
       <r>   -34.2762     0.0000     8.0000 </r>
       <r>   -34.0916     0.0000     8.0000 </r>
       <r>   -33.9069     0.0000     8.0000 </r>
       <r>   -33.7223     0.0000     8.0000 </r>
       <r>   -33.5377     0.0000     8.0000 </r>
       <r>   -33.3530     0.0000     8.0000 </r>
       <r>   -33.1684     0.0000     8.0000 </r>
       <r>   -32.9838     0.0000     8.0000 </r>
       <r>   -32.7991     0.0000     8.0000 </r>
       <r>   -32.6145     0.0000     8.0000 </r>
       <r>   -32.4299     0.0000     8.0000 </r>
       <r>   -32.2452     0.0000     8.0000 </r>
       <r>   -32.0606     0.0000     8.0000 </r>
       <r>   -31.8760     0.0000     8.0000 </r>
       <r>   -31.6914     0.0000     8.0000 </r>
       <r>   -31.5067     0.0000     8.0000 </r>
       <r>   -31.3221     0.0000     8.0000 </r>
       <r>   -31.1375     0.0000     8.0000 </r>
       <r>   -30.9528     0.0000     8.0000 </r>
       <r>   -30.7682     0.0000     8.0000 </r>
       <r>   -30.5836     0.0000     8.0000 </r>
       <r>   -30.3989     0.0000     8.0000 </r>
       <r>   -30.2143     0.0000     8.0000 </r>
       <r>   -30.0297     0.0000     8.0000 </r>
       <r>   -29.8450     0.0000     8.0000 </r>
       <r>   -29.6604     0.0000     8.0000 </r>
       <r>   -29.4758     0.0000     8.0000 </r>
       <r>   -29.2911     0.0000     8.0000 </r>
       <r>   -29.1065     0.0000     8.0000 </r>
       <r>   -28.9219     0.0000     8.0000 </r>
       <r>   -28.7372     0.0000     8.0000 </r>
       <r>   -28.5526     0.0000     8.0000 </r>
       <r>   -28.3680     0.0000     8.0000 </r>
       <r>   -28.1833     0.0000     8.0000 </r>
       <r>   -27.9987     0.0000     8.0000 </r>
       <r>   -27.8141     0.0000     8.0000 </r>
       <r>   -27.6294     0.0000     8.0000 </r>
       <r>   -27.4448     0.0000     8.0000 </r>
       <r>   -27.2602     0.0000     8.0000 </r>
       <r>   -27.0755     0.0000     8.0000 </r>
       <r>   -26.8909     0.0000     8.0000 </r>
       <r>   -26.7063     0.0000     8.0000 </r>
       <r>   -26.5216     0.0000     8.0000 </r>
       <r>   -26.3370     0.0000     8.0000 </r>
       <r>   -26.1524     0.0000     8.0000 </r>
       <r>   -25.9677     0.0000     8.0000 </r>
       <r>   -25.7831     0.0000     8.0000 </r>
       <r>   -25.5985     0.0000     8.0000 </r>
       <r>   -25.4139     0.0000     8.0000 </r>
       <r>   -25.2292     0.0000     8.0000 </r>
       <r>   -25.0446     0.0000     8.0000 </r>
       <r>   -24.8600     0.0000     8.0000 </r>
       <r>   -24.6753     0.0000     8.0000 </r>
       <r>   -24.4907     0.0000     8.0000 </r>
       <r>   -24.3061     0.0000     8.0000 </r>
       <r>   -24.1214     0.0000     8.0000 </r>
       <r>   -23.9368     0.0000     8.0000 </r>
       <r>   -23.7522     0.0000     8.0000 </r>
       <r>   -23.5675     0.0000     8.0000 </r>
       <r>   -23.3829     0.0000     8.0000 </r>
       <r>   -23.1983     0.0000     8.0000 </r>
       <r>   -23.0136     0.0000     8.0000 </r>
       <r>   -22.8290     0.0000     8.0000 </r>
       <r>   -22.6444     0.0000     8.0000 </r>
       <r>   -22.4597     0.0000     8.0000 </r>
       <r>   -22.2751     0.0000     8.0000 </r>
       <r>   -22.0905     0.0000     8.0000 </r>
       <r>   -21.9058     0.0000     8.0000 </r>
       <r>   -21.7212     0.0000     8.0000 </r>
       <r>   -21.5366     0.0000     8.0000 </r>
       <r>   -21.3519     0.0000     8.0000 </r>
       <r>   -21.1673     0.0000     8.0000 </r>
       <r>   -20.9827     0.0000     8.0000 </r>
       <r>   -20.7980     0.0000     8.0000 </r>
       <r>   -20.6134     0.0000     8.0000 </r>
       <r>   -20.4288     0.0000     8.0000 </r>
       <r>   -20.2441     0.0000     8.0000 </r>
       <r>   -20.0595     0.0000     8.0000 </r>
       <r>   -19.8749     0.0000     8.0000 </r>
       <r>   -19.6903     0.0000     8.0000 </r>
       <r>   -19.5056     0.0000     8.0000 </r>
       <r>   -19.3210     0.0000     8.0000 </r>
       <r>   -19.1364     0.0000     8.0000 </r>
       <r>   -18.9517     0.0000     8.0000 </r>
       <r>   -18.7671     0.0000    24.0000 </r>
       <r>   -18.5825     0.0000    76.0000 </r>
       <r>   -18.3978     0.0000   128.0000 </r>
       <r>   -18.2132     0.0000   160.0000 </r>
       <r>   -18.0286     0.0000   168.0000 </r>
       <r>   -17.8439     0.0000   168.0000 </r>
       <r>   -17.6593     0.0000   168.0000 </r>
       <r>   -17.4747     0.0000   168.0000 </r>
       <r>   -17.2900     0.0000   168.0000 </r>
       <r>   -17.1054     0.0000   168.0000 </r>
       <r>   -16.9208     0.0000   168.0000 </r>
       <r>   -16.7361     0.0000   168.0000 </r>
       <r>   -16.5515     0.0000   168.0000 </r>
       <r>   -16.3669     0.0000   168.0000 </r>
       <r>   -16.1822     0.0000   168.0000 </r>
       <r>   -15.9976     0.0000   168.0000 </r>
       <r>   -15.8130     0.0000   168.0000 </r>
       <r>   -15.6283     0.0000   168.0000 </r>
       <r>   -15.4437     0.0000   168.0000 </r>
       <r>   -15.2591     0.0000   168.0000 </r>
       <r>   -15.0744     0.0000   168.0000 </r>
       <r>   -14.8898     0.0000   168.0000 </r>
       <r>   -14.7052     0.0000   168.0000 </r>
       <r>   -14.5205     0.0000   168.0000 </r>
       <r>   -14.3359     0.0000   168.0000 </r>
       <r>   -14.1513     0.0000   168.0000 </r>
       <r>   -13.9667     0.0000   168.0000 </r>
       <r>   -13.7820     0.0000   168.0000 </r>
       <r>   -13.5974     0.0000   170.0000 </r>
       <r>   -13.4128     0.0000   170.0000 </r>
       <r>   -13.2281     0.0000   172.0000 </r>
       <r>   -13.0435     0.0000   176.0000 </r>
       <r>   -12.8589   386.4389   183.5888 </r>
       <r>   -12.6742     0.0000   192.0000 </r>
       <r>   -12.4896     0.0000   196.0000 </r>
       <r>   -12.3050     0.0000   200.0000 </r>
       <r>   -12.1203     0.0000   200.0000 </r>
       <r>   -11.9357     0.0000   200.0000 </r>
       <r>   -11.7511     0.0000   200.0000 </r>
       <r>   -11.5664     0.0000   200.0000 </r>
       <r>   -11.3818     0.0000   200.0000 </r>
       <r>   -11.1972     0.0000   200.0000 </r>
       <r>   -11.0125     0.0000   200.0000 </r>
       <r>   -10.8279     0.0000   200.0000 </r>
       <r>   -10.6433     0.0000   200.0000 </r>
       <r>   -10.4586     0.0000   200.0000 </r>
       <r>   -10.2740     0.0000   200.0000 </r>
       <r>   -10.0894     0.0000   200.0000 </r>
       <r>    -9.9047     0.0000   200.0000 </r>
       <r>    -9.7201     0.0000   200.0000 </r>
       <r>    -9.5355     0.0000   200.0000 </r>
       <r>    -9.3508     0.0000   200.0000 </r>
       <r>    -9.1662    12.6490   201.0515 </r>
       <r>    -8.9816    11.2537   202.6368 </r>
       <r>    -8.7969     5.1082   204.2484 </r>
       <r>    -8.6123    10.5409   206.1890 </r>
       <r>    -8.4277    16.8450   209.6592 </r>
       <r>    -8.2431    13.2207   213.0602 </r>
       <r>    -8.0584    13.3656   215.8973 </r>
       <r>    -7.8738    22.1361   218.5915 </r>
       <r>    -7.6892    27.8085   223.9072 </r>
       <r>    -7.5045    20.8507   227.4876 </r>
       <r>    -7.3199    27.1892   230.6673 </r>
       <r>    -7.1353     0.0000   232.0000 </r>
       <r>    -6.9506     0.0000   232.0000 </r>
       <r>    -6.7660     0.0000   232.0000 </r>
       <r>    -6.5814     0.0000   232.0000 </r>
       <r>    -6.3967     5.5174   232.0687 </r>
       <r>    -6.2121     7.8858   234.1821 </r>
       <r>    -6.0275    14.5903   237.1411 </r>
       <r>    -5.8428    17.8191   240.0321 </r>
       <r>    -5.6582    20.9135   243.2549 </r>
       <r>    -5.4736    21.5997   247.6259 </r>
       <r>    -5.2889    18.9651   251.4744 </r>
       <r>    -5.1043    14.5912   254.3181 </r>
       <r>    -4.9197     1.2786   255.9883 </r>
       <r>    -4.7350    18.0703   257.6633 </r>
       <r>    -4.5504     8.8048   259.8001 </r>
       <r>    -4.3658     6.6835   260.7053 </r>
       <r>    -4.1811     9.5939   262.5388 </r>
       <r>    -3.9965     3.4454   263.5228 </r>
       <r>    -3.8119     1.1332   263.9454 </r>
       <r>    -3.6272     0.0000   264.0000 </r>
       <r>    -3.4426     0.0000   264.0000 </r>
       <r>    -3.2580     0.0000   264.0000 </r>
       <r>    -3.0733     0.0000   264.0000 </r>
       <r>    -2.8887     0.0000   264.0000 </r>
       <r>    -2.7041     0.0000   264.0000 </r>
       <r>    -2.5194     0.0000   264.0000 </r>
       <r>    -2.3348     0.0000   264.0000 </r>
       <r>    -2.1502     0.0000   264.0000 </r>
       <r>    -1.9656     0.0000   264.0000 </r>
       <r>    -1.7809     0.0000   264.0000 </r>
       <r>    -1.5963     0.0000   264.0000 </r>
       <r>    -1.4117     0.0000   264.0000 </r>
       <r>    -1.2270     0.0000   264.0000 </r>
       <r>    -1.0424     9.2515   264.6230 </r>
       <r>    -0.8578     8.5969   266.1563 </r>
       <r>    -0.6731    15.1531   268.3927 </r>
       <r>    -0.4885    17.9818   271.1713 </r>
       <r>    -0.3039    25.8512   275.4264 </r>
       <r>    -0.1192    40.9417   281.4056 </r>
       <r>     0.0654    33.0147   287.5953 </r>
       <r>     0.2500    32.2036   295.2431 </r>
       <r>     0.4347    42.4304   302.0005 </r>
       <r>     0.6193    29.6348   308.9012 </r>
       <r>     0.8039    41.2253   316.3999 </r>
       <r>     0.9886    16.1995   323.6371 </r>
       <r>     1.1732    58.3224   332.0949 </r>
       <r>     1.3578    53.0787   339.7748 </r>
       <r>     1.5425    47.5161   348.6010 </r>
       <r>     1.7271    32.7494   356.6378 </r>
       <r>     1.9117    43.1989   364.2486 </r>
       <r>     2.0964    52.8873   372.6379 </r>
       <r>     2.2810    58.7613   382.2351 </r>
       <r>     2.4656    51.5856   390.9478 </r>
       <r>     2.6503    49.1076   401.6265 </r>
       <r>     2.8349    49.1810   412.2076 </r>
       <r>     3.0195    65.9082   421.9703 </r>
       <r>     3.2042    44.8696   431.5899 </r>
       <r>     3.3888    31.0044   439.3505 </r>
       <r>     3.5734    25.8858   444.8911 </r>
       <r>     3.7580    20.4856   449.7374 </r>
       <r>     3.9427    20.0533   454.0637 </r>
       <r>     4.1273     0.7418   455.9945 </r>
       <r>     4.3119     0.0000   456.0000 </r>
       <r>     4.4966     0.0000   456.0000 </r>
       <r>     4.6812     0.0000   456.0000 </r>
       <r>     4.8658     0.0000   456.0000 </r>
       <r>     5.0505     0.0000   456.0000 </r>
       <r>     5.2351     0.0000   456.0000 </r>
       <r>     5.4197     7.6622   456.4663 </r>
       <r>     5.6044     9.6753   458.0990 </r>
       <r>     5.7890    13.2826   460.1784 </r>
       <r>     5.9736    17.1079   463.1993 </r>
       <r>     6.1583    15.4913   466.2859 </r>
       <r>     6.3429    15.3837   469.1036 </r>
       <r>     6.5275    16.7572   472.0636 </r>
       <r>     6.7122    18.1971   475.2417 </r>
       <r>     6.8968    17.6735   478.5930 </r>
       <r>     7.0814    20.9391   482.1995 </r>
       <r>     7.2661    28.4960   486.6097 </r>
       <r>     7.4507    26.4815   491.6962 </r>
       <r>     7.6353    29.5077   497.2801 </r>
       <r>     7.8200    34.5697   502.4947 </r>
       <r>     8.0046    26.6182   508.7152 </r>
       <r>     8.1892    29.8816   513.6207 </r>
       <r>     8.3739    33.1862   519.5475 </r>
       <r>     8.5585    24.1612   524.7961 </r>
       <r>     8.7431    26.0062   529.3795 </r>
       <r>     8.9278    27.2975   534.2111 </r>
       <r>     9.1124    27.6228   539.3232 </r>
       <r>     9.2970    20.6781   543.7750 </r>
       <r>     9.4816    16.9913   547.1989 </r>
       <r>     9.6663     9.8550   550.1276 </r>
       <r>     9.8509     9.2575   552.7292 </r>
       <r>    10.0355    11.3192   555.2126 </r>
       <r>    10.2202    16.1950   557.9423 </r>
       <r>    10.4048     3.3735   559.9245 </r>
       <r>    10.5894     0.0000   560.0000 </r>
       <r>    10.7741     0.0000   560.0000 </r>
       <r>    10.9587     0.0000   560.0000 </r>
       <r>    11.1433     0.0000   560.0000 </r>
       <r>    11.3280     0.0000   560.0000 </r>
       <r>    11.5126     0.0000   560.0000 </r>
       <r>    11.6972     0.0000   560.0000 </r>
       <r>    11.8819     0.0000   560.0000 </r>
       <r>    12.0665     0.0000   560.0000 </r>
       <r>    12.2511     0.0000   560.0000 </r>
       <r>    12.4358     0.0000   560.0000 </r>
       <r>    12.6204     0.0000   560.0000 </r>
       <r>    12.8050     0.0000   560.0000 </r>
       <r>    12.9897     0.0000   560.0000 </r>
      </set>
     </set>
    </array>
   </total>
  </dos>
 </calculation>
 <structure name="finalpos" >
  <crystal>
   <varray name="basis" >
    <v>      11.21257271       0.09566250      -0.30272024 </v>
    <v>       0.07571137       9.47675074      -0.25032933 </v>
    <v>      -0.29546215      -0.29424435      11.18128150 </v>
   </varray>
   <i name="volume">   1186.36838796 </i>
   <varray name="rec_basis" >
    <v>       0.08925437      -0.00065122       0.00234138 </v>
    <v>      -0.00082652       0.10560083       0.00275713 </v>
    <v>       0.00239795       0.00234659       0.08956030 </v>
   </varray>
  </crystal>
  <varray name="positions" >
   <v>       0.05494696       0.01493154       0.25695121 </v>
   <v>       0.39782888      -0.04452991       0.62707072 </v>
   <v>       0.85260890       0.04754678       0.00163622 </v>
   <v>       0.86416724       0.00721323       0.70771994 </v>
   <v>       0.85261010       0.00878387       0.44316305 </v>
   <v>       0.62103339       0.00533203       0.18791844 </v>
   <v>       0.11200119       0.03931515       0.92089594 </v>
   <v>       0.37065269       0.04729449       0.91958611 </v>
   <v>       0.12030167       0.00229120       0.66113257 </v>
   <v>       0.62723006       0.01252991       0.91566538 </v>
   <v>       0.02025099       0.33136543       0.08589508 </v>
   <v>       0.24700988       0.78493109       0.10958843 </v>
   <v>       0.35676584       0.07313824       0.32434077 </v>
   <v>       0.48637526       0.68315299       0.31709929 </v>
   <v>       0.50025417       0.33432350       0.06538157 </v>
   <v>       0.75082455       0.70337320       0.06373693 </v>
   <v>       0.75066146       0.31366873       0.31966454 </v>
   <v>      -0.00809446       0.68640748       0.32188950 </v>
   <v>      -0.00388126       0.31509644       0.56283812 </v>
   <v>       0.24012982       0.67297101       0.56175796 </v>
   <v>       0.24686710       0.33506448       0.80333263 </v>
   <v>       0.48734486       0.69956883       0.81944085 </v>
   <v>       0.48247526       0.28943624       0.55776686 </v>
   <v>       0.74392103       0.70870711       0.56872652 </v>
   <v>       0.75745054       0.31338151       0.82263379 </v>
   <v>       0.01034488       0.70342203       0.81826684 </v>
   <v>       0.26898491       0.30451887       0.04878697 </v>
   <v>       0.01296958       0.72473656       0.06382002 </v>
   <v>       0.49976706       0.36519206       0.30875361 </v>
   <v>       0.22265683       0.60689367       0.32452946 </v>
   <v>       0.76906161       0.36559271       0.06411907 </v>
   <v>       0.51153278       0.65747621       0.05829037 </v>
   <v>      -0.00231738       0.27026903       0.32070000 </v>
   <v>       0.72131657       0.67729255       0.32300076 </v>
   <v>       0.25037788       0.33395002       0.55462381 </v>
   <v>      -0.01119026       0.64203273       0.56264355 </v>
   <v>       0.50118605       0.28298071       0.80705195 </v>
   <v>       0.24552814       0.65098298       0.82708711 </v>
   <v>       0.75298872       0.34649184       0.56173742 </v>
   <v>       0.49044571       0.67310979       0.56295500 </v>
   <v>       0.00144164       0.36411583       0.82542764 </v>
   <v>       0.73834677       0.67229072       0.82387557 </v>
   <v>       0.52065685       0.10253391       0.04719452 </v>
   <v>       0.25144640       0.94914462      -0.00269950 </v>
   <v>       0.21417653      -0.05883725       0.25424239 </v>
   <v>      -0.03551619       0.89884453       0.34370866 </v>
   <v>       0.00718989       0.11592822       0.04553692 </v>
   <v>       0.72028234       0.92668897       0.05520569 </v>
   <v>       0.73087080       0.09325435       0.31651201 </v>
   <v>       0.48484876       0.91685952       0.26818129 </v>
   <v>       0.44735866       0.07510901       0.50849522 </v>
   <v>       0.24123129       0.89285127       0.57965436 </v>
   <v>       0.22521559       0.10526884       0.79723497 </v>
   <v>       0.02040219       0.92477536       0.79142111 </v>
   <v>       0.97761569       0.09380896       0.57761080 </v>
   <v>       0.77395362       0.91983838       0.57354683 </v>
   <v>       0.76898817       0.09401855       0.84656059 </v>
   <v>       0.48610181       0.92364987       0.82495259 </v>
  </varray>
 </structure>
</modeling>
