<?xml version="1.0" encoding="ISO-8859-1"?>
<modeling>
 <generator>
  <i name="program" type="string">vasp </i>
  <i name="version" type="string">5.4.4.18Apr17-6-g9f103f2a35  </i>
  <i name="subversion" type="string">(build Jul 31 2017 11:33:29) complex            parallel </i>
  <i name="platform" type="string">LinuxIFC </i>
  <i name="date" type="string">2021 09 24 </i>
  <i name="time" type="string">20:31:54 </i>
 </generator>
 <incar>
  <i type="string" name="SYSTEM"> La2O2S</i>
  <i type="string" name="PREC">normal</i>
  <i type="int" name="NELMIN">     4</i>
  <i type="int" name="IBRION">     2</i>
  <i type="int" name="NFREE">    10</i>
  <i name="EDIFF">      0.00000100</i>
  <i name="EDIFFG">     -0.01000000</i>
  <i type="int" name="NSW">   200</i>
  <i type="int" name="ISIF">     3</i>
  <i name="ENCUT">    600.00000000</i>
  <i name="ENAUG">    900.00000000</i>
  <i type="int" name="ISMEAR">    -5</i>
  <i type="logical" name="LWAVE"> F  </i>
  <i type="logical" name="LCHARG"> F  </i>
  <v type="int" name="KPOINT_BSE">    -1     0     0     0</v>
 </incar>
 <structure name="primitive_cell" >
  <crystal>
   <varray name="basis" >
    <v>      11.17850000       0.00000000       0.00000000 </v>
    <v>       0.00000000       9.57460000       0.00000000 </v>
    <v>       0.00000000       0.00000000      11.18240000 </v>
   </varray>
   <i name="volume">   1196.84853820 </i>
   <varray name="rec_basis" >
    <v>       0.08945744       0.00000000       0.00000000 </v>
    <v>       0.00000000       0.10444301       0.00000000 </v>
    <v>       0.00000000       0.00000000       0.08942624 </v>
   </varray>
  </crystal>
  <varray name="positions" >
   <v>       0.12461000      -0.00016000       0.18687000 </v>
   <v>      -0.00013000       0.07798000       0.06246000 </v>
   <v>       0.24987000      -0.07798000       0.06246000 </v>
   <v>       0.00013000      -0.07798000       0.31246000 </v>
   <v>       0.25013000       0.07798000       0.31246000 </v>
   <v>       0.37461000       0.00017000       0.18687000 </v>
   <v>      -0.12539000       0.00017000       0.18687000 </v>
   <v>       0.12539000      -0.00016000      -0.06313000 </v>
   <v>       0.00013000       0.29519000       0.06281000 </v>
   <v>       0.25013000      -0.29519000       0.06281000 </v>
   <v>      -0.00013000      -0.29519000       0.31282000 </v>
   <v>       0.24987000       0.29519000       0.31282000 </v>
   <v>       0.00005000      -0.32677000       0.06286000 </v>
   <v>       0.25005000       0.32677000       0.06286000 </v>
   <v>      -0.00005000       0.32677000       0.31286000 </v>
   <v>       0.24995000      -0.32677000       0.31286000 </v>
   <v>      -0.12461000       0.00017000       0.43687000 </v>
   <v>      -0.12461000       0.00017000      -0.06313000 </v>
   <v>       0.37539000       0.00017000      -0.06313000 </v>
   <v>       0.00013000      -0.07798000      -0.18754000 </v>
   <v>      -0.25013000      -0.07798000       0.06246000 </v>
   <v>      -0.24987000       0.07798000       0.31246000 </v>
   <v>       0.25013000       0.07798000      -0.18754000 </v>
   <v>       0.49987000       0.07798000       0.06246000 </v>
   <v>      -0.00013000       0.07798000      -0.43754000 </v>
   <v>      -0.49987000      -0.07798000       0.31246000 </v>
   <v>       0.24987000      -0.07798000      -0.43754000 </v>
   <v>      -0.00013000      -0.29519000      -0.18718000 </v>
   <v>      -0.24987000      -0.29519000       0.06281000 </v>
   <v>       0.24987000       0.29519000      -0.18718000 </v>
   <v>      -0.25013000       0.29519000       0.31282000 </v>
   <v>      -0.49987000       0.29519000       0.06281000 </v>
   <v>       0.49987000      -0.29519000       0.31282000 </v>
   <v>       0.00013000       0.29519000      -0.43719000 </v>
   <v>       0.25013000      -0.29519000      -0.43719000 </v>
   <v>      -0.00005000       0.32677000      -0.18714000 </v>
   <v>       0.24995000      -0.32677000      -0.18714000 </v>
   <v>      -0.24995000       0.32677000       0.06286000 </v>
   <v>      -0.25005000      -0.32677000       0.31286000 </v>
   <v>      -0.49995000      -0.32677000       0.06286000 </v>
   <v>       0.49995000       0.32677000       0.31286000 </v>
   <v>       0.00005000      -0.32677000      -0.43714000 </v>
   <v>       0.25005000       0.32677000      -0.43714000 </v>
   <v>      -0.37539000      -0.00016000       0.18687000 </v>
   <v>       0.12461000      -0.00016000      -0.31313000 </v>
   <v>      -0.24987000       0.07798000      -0.18754000 </v>
   <v>      -0.49987000      -0.07798000      -0.18754000 </v>
   <v>      -0.25013000      -0.07798000      -0.43754000 </v>
   <v>       0.49987000       0.07798000      -0.43754000 </v>
   <v>      -0.37461000      -0.00016000       0.43687000 </v>
   <v>      -0.37461000      -0.00016000      -0.06313000 </v>
   <v>       0.37461000       0.00017000      -0.31313000 </v>
   <v>      -0.12539000       0.00017000      -0.31313000 </v>
   <v>      -0.25013000       0.29519000      -0.18718000 </v>
   <v>       0.49987000      -0.29519000      -0.18718000 </v>
   <v>      -0.24987000      -0.29519000      -0.43719000 </v>
   <v>      -0.49987000       0.29519000      -0.43719000 </v>
   <v>      -0.25005000      -0.32677000      -0.18714000 </v>
   <v>       0.49995000       0.32677000      -0.18714000 </v>
   <v>      -0.24995000       0.32677000      -0.43714000 </v>
   <v>      -0.49995000      -0.32677000      -0.43714000 </v>
   <v>      -0.37539000      -0.00016000      -0.31313000 </v>
  </varray>
 </structure>
 <varray name="primitive_index" >
  <v type="int" >        1 </v>
  <v type="int" >       51 </v>
  <v type="int" >       48 </v>
  <v type="int" >       50 </v>
  <v type="int" >       49 </v>
  <v type="int" >        2 </v>
  <v type="int" >        6 </v>
  <v type="int" >       13 </v>
  <v type="int" >       15 </v>
  <v type="int" >       16 </v>
  <v type="int" >       22 </v>
  <v type="int" >       17 </v>
  <v type="int" >       32 </v>
  <v type="int" >       31 </v>
  <v type="int" >       37 </v>
  <v type="int" >       34 </v>
  <v type="int" >        4 </v>
  <v type="int" >       10 </v>
  <v type="int" >        7 </v>
  <v type="int" >       58 </v>
  <v type="int" >       52 </v>
  <v type="int" >       53 </v>
  <v type="int" >       57 </v>
  <v type="int" >       47 </v>
  <v type="int" >       59 </v>
  <v type="int" >       54 </v>
  <v type="int" >       56 </v>
  <v type="int" >       30 </v>
  <v type="int" >       20 </v>
  <v type="int" >       25 </v>
  <v type="int" >       21 </v>
  <v type="int" >       19 </v>
  <v type="int" >       18 </v>
  <v type="int" >       23 </v>
  <v type="int" >       24 </v>
  <v type="int" >       45 </v>
  <v type="int" >       42 </v>
  <v type="int" >       35 </v>
  <v type="int" >       38 </v>
  <v type="int" >       36 </v>
  <v type="int" >       33 </v>
  <v type="int" >       40 </v>
  <v type="int" >       39 </v>
  <v type="int" >        5 </v>
  <v type="int" >       14 </v>
  <v type="int" >       61 </v>
  <v type="int" >       62 </v>
  <v type="int" >       60 </v>
  <v type="int" >       55 </v>
  <v type="int" >        3 </v>
  <v type="int" >        9 </v>
  <v type="int" >        8 </v>
  <v type="int" >       12 </v>
  <v type="int" >       29 </v>
  <v type="int" >       26 </v>
  <v type="int" >       28 </v>
  <v type="int" >       27 </v>
  <v type="int" >       46 </v>
  <v type="int" >       41 </v>
  <v type="int" >       43 </v>
  <v type="int" >       44 </v>
  <v type="int" >       11 </v>
 </varray>
 <kpoints>
  <generation param="Gamma">
   <v type="int" name="divisions">       2        2        2 </v>
   <v name="usershift">      0.00000000       0.00000000       0.00000000 </v>
   <v name="genvec1">      0.50000000       0.00000000       0.00000000 </v>
   <v name="genvec2">      0.00000000       0.50000000       0.00000000 </v>
   <v name="genvec3">      0.00000000       0.00000000       0.50000000 </v>
   <v name="shift">      0.00000000       0.00000000       0.00000000 </v>
  </generation>
  <varray name="kpointlist" >
   <v>       0.00000000       0.00000000       0.00000000 </v>
   <v>       0.50000000       0.00000000       0.00000000 </v>
   <v>       0.00000000       0.50000000       0.00000000 </v>
   <v>       0.50000000       0.50000000       0.00000000 </v>
   <v>       0.00000000       0.00000000       0.50000000 </v>
   <v>       0.50000000       0.00000000       0.50000000 </v>
   <v>       0.00000000       0.50000000       0.50000000 </v>
   <v>       0.50000000       0.50000000       0.50000000 </v>
  </varray>
  <varray name="weights" >
   <v>       0.12500000 </v>
   <v>       0.12500000 </v>
   <v>       0.12500000 </v>
   <v>       0.12500000 </v>
   <v>       0.12500000 </v>
   <v>       0.12500000 </v>
   <v>       0.12500000 </v>
   <v>       0.12500000 </v>
  </varray>
  <varray name="tetrahedronlist"  type="int" >
   <v type="int" >        2        1        2        4        5 </v>
   <v type="int" >        2        1        3        4        5 </v>
   <v type="int" >        2        3        4        5        7 </v>
   <v type="int" >        2        2        4        5        6 </v>
   <v type="int" >        2        4        5        6        8 </v>
   <v type="int" >        2        4        5        7        8 </v>
   <v type="int" >        2        1        2        3        6 </v>
   <v type="int" >        2        2        3        4        6 </v>
   <v type="int" >        2        3        4        6        8 </v>
   <v type="int" >        2        1        3        5        6 </v>
   <v type="int" >        2        3        5        6        7 </v>
   <v type="int" >        2        3        6        7        8 </v>
   <v type="int" >        2        2        3        4        7 </v>
   <v type="int" >        2        1        2        3        7 </v>
   <v type="int" >        2        1        2        5        7 </v>
   <v type="int" >        2        2        4        7        8 </v>
   <v type="int" >        2        2        6        7        8 </v>
   <v type="int" >        2        2        5        6        7 </v>
   <v type="int" >        2        1        3        4        8 </v>
   <v type="int" >        2        1        2        4        8 </v>
   <v type="int" >        2        1        2        6        8 </v>
   <v type="int" >        2        1        3        7        8 </v>
   <v type="int" >        2        1        5        7        8 </v>
   <v type="int" >        2        1        5        6        8 </v>
  </varray>
  <i name="volumeweight">      0.02083333 </i>
 </kpoints>
 <parameters>
  <separator name="general" >
   <i type="string" name="SYSTEM">La2O2S</i>
   <i type="logical" name="LCOMPAT"> F  </i>
  </separator>
  <separator name="electronic" >
   <i type="string" name="PREC">normal</i>
   <i name="ENMAX">    600.00000000</i>
   <i name="ENAUG">    900.00000000</i>
   <i name="EDIFF">      0.00000100</i>
   <i type="int" name="IALGO">    38</i>
   <i type="int" name="IWAVPR">    11</i>
   <i type="int" name="NBANDS">   308</i>
   <i name="NELECT">    472.00000000</i>
   <i type="int" name="TURBO">     0</i>
   <i type="int" name="IRESTART">     0</i>
   <i type="int" name="NREBOOT">     0</i>
   <i type="int" name="NMIN">     0</i>
   <i name="EREF">      0.00000000</i>
   <separator name="electronic smearing" >
    <i type="int" name="ISMEAR">    -5</i>
    <i name="SIGMA">      0.20000000</i>
    <i name="KSPACING">      0.50000000</i>
    <i type="logical" name="KGAMMA"> T  </i>
   </separator>
   <separator name="electronic projectors" >
    <i type="logical" name="LREAL"> F  </i>
    <v name="ROPT">      0.00000000      0.00000000      0.00000000      0.00000000      0.00000000</v>
    <i type="int" name="LMAXPAW">  -100</i>
    <i type="int" name="LMAXMIX">     2</i>
    <i type="logical" name="NLSPLINE"> F  </i>
   </separator>
   <separator name="electronic startup" >
    <i type="int" name="ISTART">     0</i>
    <i type="int" name="ICHARG">     2</i>
    <i type="int" name="INIWAV">     1</i>
   </separator>
   <separator name="electronic spin" >
    <i type="int" name="ISPIN">     1</i>
    <i type="logical" name="LNONCOLLINEAR"> F  </i>
    <v name="MAGMOM">      1.00000000      1.00000000      1.00000000      1.00000000      1.00000000      1.00000000      1.00000000      1.00000000      1.00000000      1.00000000      1.00000000      1.00000000      1.00000000      1.00000000      1.00000000      1.00000000      1.00000000      1.00000000      1.00000000      1.00000000
      1.00000000      1.00000000      1.00000000      1.00000000      1.00000000      1.00000000      1.00000000      1.00000000      1.00000000      1.00000000      1.00000000      1.00000000      1.00000000      1.00000000      1.00000000      1.00000000      1.00000000      1.00000000      1.00000000      1.00000000
      1.00000000      1.00000000      1.00000000      1.00000000      1.00000000      1.00000000      1.00000000      1.00000000      1.00000000      1.00000000      1.00000000      1.00000000      1.00000000      1.00000000      1.00000000      1.00000000      1.00000000      1.00000000      1.00000000      1.00000000
      1.00000000      1.00000000</v>
    <i name="NUPDOWN">     -1.00000000</i>
    <i type="logical" name="LSORBIT"> F  </i>
    <v name="SAXIS">      0.00000000      0.00000000      1.00000000</v>
    <i type="logical" name="LSPIRAL"> F  </i>
    <v name="QSPIRAL">      0.00000000      0.00000000      0.00000000</v>
    <i type="logical" name="LZEROZ"> F  </i>
   </separator>
   <separator name="electronic exchange-correlation" >
    <i type="logical" name="LASPH"> F  </i>
    <i type="logical" name="LMETAGGA"> F  </i>
   </separator>
   <separator name="electronic convergence" >
    <i type="int" name="NELM">    60</i>
    <i type="int" name="NELMDL">    -5</i>
    <i type="int" name="NELMIN">     4</i>
    <i name="ENINI">    600.00000000</i>
    <separator name="electronic convergence detail" >
     <i type="logical" name="LDIAG"> T  </i>
     <i type="logical" name="LSUBROT"> F  </i>
     <i name="WEIMIN">      0.00100000</i>
     <i name="EBREAK">      0.00000000</i>
     <i name="DEPER">      0.30000000</i>
     <i type="int" name="NRMM">     4</i>
     <i name="TIME">      0.40000000</i>
    </separator>
   </separator>
   <separator name="electronic mixer" >
    <i name="AMIX">      0.40000000</i>
    <i name="BMIX">      1.00000000</i>
    <i name="AMIN">      0.10000000</i>
    <i name="AMIX_MAG">      1.60000000</i>
    <i name="BMIX_MAG">      1.00000000</i>
    <separator name="electronic mixer details" >
     <i type="int" name="IMIX">     4</i>
     <i type="logical" name="MIXFIRST"> F  </i>
     <i type="int" name="MAXMIX">   -45</i>
     <i name="WC">    100.00000000</i>
     <i type="int" name="INIMIX">     1</i>
     <i type="int" name="MIXPRE">     1</i>
     <i type="int" name="MREMOVE">     5</i>
    </separator>
   </separator>
   <separator name="electronic dipolcorrection" >
    <i type="logical" name="LDIPOL"> F  </i>
    <i type="logical" name="LMONO"> F  </i>
    <i type="int" name="IDIPOL">     0</i>
    <i name="EPSILON">      1.00000000</i>
    <v name="DIPOL">   -100.00000000   -100.00000000   -100.00000000</v>
    <i name="EFIELD">      0.00000000</i>
   </separator>
  </separator>
  <separator name="grids" >
   <i type="int" name="NGX">    70</i>
   <i type="int" name="NGY">    60</i>
   <i type="int" name="NGZ">    70</i>
   <i type="int" name="NGXF">   140</i>
   <i type="int" name="NGYF">   120</i>
   <i type="int" name="NGZF">   140</i>
   <i type="logical" name="ADDGRID"> F  </i>
  </separator>
  <separator name="ionic" >
   <i type="int" name="NSW">   200</i>
   <i type="int" name="IBRION">     2</i>
   <i type="int" name="MDALGO">     0</i>
   <i type="int" name="ISIF">     3</i>
   <i name="PSTRESS">      0.00000000</i>
   <i name="EDIFFG">     -0.01000000</i>
   <i type="int" name="NFREE">    10</i>
   <i name="POTIM">      0.50000000</i>
   <i name="SMASS">     -3.00000000</i>
   <i name="SCALEE">      1.00000000</i>
  </separator>
  <separator name="ionic md" >
   <i name="TEBEG">      0.00010000</i>
   <i name="TEEND">      0.00010000</i>
   <i type="int" name="NBLOCK">     1</i>
   <i type="int" name="KBLOCK">   200</i>
   <i type="int" name="NPACO">   256</i>
   <i name="APACO">     16.00000000</i>
  </separator>
  <separator name="symmetry" >
   <i type="int" name="ISYM">     2</i>
   <i name="SYMPREC">      0.00001000</i>
  </separator>
  <separator name="dos" >
   <i type="int" name="LORBIT">     0</i>
   <v name="RWIGS">     -1.00000000     -1.00000000     -1.00000000     -1.00000000     -1.00000000</v>
   <i type="int" name="NEDOS">   301</i>
   <i name="EMIN">     10.00000000</i>
   <i name="EMAX">    -10.00000000</i>
   <i name="EFERMI">      0.00000000</i>
  </separator>
  <separator name="writing" >
   <i type="int" name="NWRITE">     2</i>
   <i type="logical" name="LWAVE"> F  </i>
   <i type="logical" name="LDOWNSAMPLE"> F  </i>
   <i type="logical" name="LCHARG"> F  </i>
   <i type="logical" name="LPARD"> F  </i>
   <i type="logical" name="LVTOT"> F  </i>
   <i type="logical" name="LVHAR"> F  </i>
   <i type="logical" name="LELF"> F  </i>
   <i type="logical" name="LOPTICS"> F  </i>
   <v name="STM">      0.00000000      0.00000000      0.00000000      0.00000000      0.00000000      0.00000000      0.00000000</v>
  </separator>
  <separator name="performance" >
   <i type="int" name="NPAR">    28</i>
   <i type="int" name="NSIM">     4</i>
   <i type="int" name="NBLK">    -1</i>
   <i type="logical" name="LPLANE"> T  </i>
   <i type="logical" name="LSCALAPACK"> T  </i>
   <i type="logical" name="LSCAAWARE"> F  </i>
   <i type="logical" name="LSCALU"> F  </i>
   <i type="logical" name="LASYNC"> F  </i>
   <i type="logical" name="LORBITALREAL"> F  </i>
  </separator>
  <separator name="miscellaneous" >
   <i type="int" name="IDIOT">     3</i>
   <i type="int" name="ISPECIAL">     0</i>
   <i type="logical" name="LMUSIC"> F  </i>
   <v name="POMASS">      7.01000000     24.30500000    208.98000000     32.06600000     16.00000000</v>
   <v name="DARWINR">      0.00000000      0.00000000      0.00000000      0.00000000      0.00000000</v>
   <v name="DARWINV">      1.00000000      1.00000000      1.00000000      1.00000000      1.00000000</v>
   <i type="logical" name="LCORR"> T  </i>
  </separator>
  <i type="logical" name="GGA_COMPAT"> T  </i>
  <i type="logical" name="LBERRY"> F  </i>
  <i type="int" name="ICORELEVEL">     0</i>
  <i type="logical" name="LDAU"> F  </i>
  <i type="int" name="I_CONSTRAINED_M">     0</i>
  <separator name="electronic exchange-correlation" >
   <i type="string" name="GGA">--</i>
   <i type="int" name="VOSKOWN">     0</i>
   <i type="logical" name="LHFCALC"> F  </i>
   <i type="string" name="PRECFOCK"></i>
   <i type="logical" name="LSYMGRAD"> F  </i>
   <i type="logical" name="LHFONE"> F  </i>
   <i type="logical" name="LRHFCALC"> F  </i>
   <i type="logical" name="LTHOMAS"> F  </i>
   <i type="logical" name="LMODELHF"> F  </i>
   <i name="ENCUT4O">     -1.00000000</i>
   <i type="int" name="EXXOEP">     0</i>
   <i type="int" name="FOURORBIT">     0</i>
   <i name="AEXX">      0.00000000</i>
   <i name="HFALPHA">      0.00000000</i>
   <i name="MCALPHA">      0.00000000</i>
   <i name="ALDAX">      1.00000000</i>
   <i name="AGGAX">      1.00000000</i>
   <i name="ALDAC">      1.00000000</i>
   <i name="AGGAC">      1.00000000</i>
   <i type="int" name="NKREDX">     1</i>
   <i type="int" name="NKREDY">     1</i>
   <i type="int" name="NKREDZ">     1</i>
   <i type="logical" name="SHIFTRED"> F  </i>
   <i type="logical" name="ODDONLY"> F  </i>
   <i type="logical" name="EVENONLY"> F  </i>
   <i type="int" name="LMAXFOCK">     0</i>
   <i type="int" name="NMAXFOCKAE">     0</i>
   <i type="logical" name="LFOCKAEDFT"> F  </i>
   <i name="HFSCREEN">      0.00000000</i>
   <i name="HFSCREENC">      0.00000000</i>
   <i type="int" name="NBANDSGWLOW">     0</i>
  </separator>
  <separator name="vdW DFT" >
   <i type="logical" name="LUSE_VDW"> F  </i>
   <i name="Zab_VDW">     -0.84910000</i>
   <i name="PARAM1">      0.12340000</i>
   <i name="PARAM2">      1.00000000</i>
   <i name="PARAM3">      0.00000000</i>
  </separator>
  <separator name="model GW" >
   <i type="int" name="MODEL_GW">     0</i>
   <i name="MODEL_EPS0">     11.58240521</i>
   <i name="MODEL_ALPHA">      1.00000000</i>
  </separator>
  <separator name="linear response parameters" >
   <i type="logical" name="LEPSILON"> F  </i>
   <i type="logical" name="LRPA"> F  </i>
   <i type="logical" name="LNABLA"> F  </i>
   <i type="logical" name="LVEL"> F  </i>
   <i type="int" name="KINTER">     0</i>
   <i name="CSHIFT">      0.10000000</i>
   <i name="OMEGAMAX">     -1.00000000</i>
   <i name="DEG_THRESHOLD">      0.00200000</i>
   <i name="RTIME">     -0.10000000</i>
   <i name="WPLASMAI">      0.00000000</i>
   <v name="DFIELD">      0.00000000      0.00000000      0.00000000</v>
   <v name="WPLASMA">      0.00000000      0.00000000      0.00000000      0.00000000      0.00000000      0.00000000      0.00000000      0.00000000      0.00000000</v>
  </separator>
  <separator name="orbital magnetization" >
   <i type="logical" name="NUCIND"> F  </i>
   <v name="MAGPOS">      0.00000000      0.00000000      0.00000000</v>
   <i type="logical" name="LNICSALL"> T  </i>
   <i type="logical" name="ORBITALMAG"> F  </i>
   <i type="logical" name="LMAGBLOCH"> F  </i>
   <i type="logical" name="LCHIMAG"> F  </i>
   <i type="logical" name="LGAUGE"> T  </i>
   <i type="int" name="MAGATOM">     0</i>
   <v name="MAGDIPOL">      0.00000000      0.00000000      0.00000000</v>
   <v name="AVECCONST">      0.00000000      0.00000000      0.00000000</v>
  </separator>
  <separator name="response functions" >
   <i type="logical" name="LADDER"> F  </i>
   <i type="logical" name="LRPAFORCE"> F  </i>
   <i type="logical" name="LFXC"> F  </i>
   <i type="logical" name="LHARTREE"> T  </i>
   <i type="int" name="IBSE">     0</i>
   <v type="int" name="KPOINT">    -1     0     0     0</v>
   <i type="logical" name="LTCTE"> F  </i>
   <i type="logical" name="LTETE"> F  </i>
   <i type="logical" name="LTRIPLET"> F  </i>
   <i type="logical" name="LFXCEPS"> F  </i>
   <i type="logical" name="LFXHEG"> F  </i>
   <i type="int" name="NATURALO">     2</i>
   <i type="logical" name="L2ORDER"> F  </i>
   <i type="logical" name="LMP2LT"> F  </i>
   <i type="logical" name="LUSEW"> F  </i>
   <i name="ENCUTGW">     -2.00000000</i>
   <i name="ENCUTGWSOFT">     -2.00000000</i>
   <i name="ENCUTLF">     -1.00000000</i>
   <i type="int" name="LMAXMP2">    -1</i>
   <i name="SCISSOR">      0.00000000</i>
   <i type="int" name="NOMEGA">     0</i>
   <i type="int" name="NOMEGAR">     0</i>
   <i type="int" name="NBANDSGW">    -1</i>
   <i type="int" name="NBANDSO">    -1</i>
   <i type="int" name="NBANDSV">    -1</i>
   <i type="int" name="NELM">     1</i>
   <i type="int" name="NELMHF">     1</i>
   <i type="int" name="DIM">     3</i>
   <i type="int" name="ANTIRES">     0</i>
   <i name="OMEGAMAX">    -30.00000000</i>
   <i name="OMEGAMIN">    -30.00000000</i>
   <i name="OMEGATL">   -200.00000000</i>
   <i type="int" name="OMEGAGRID">   140</i>
   <i name="CSHIFT">     -0.10000000</i>
   <i type="logical" name="SELFENERGY"> F  </i>
   <i type="logical" name="LSPECTRAL"> F  </i>
   <i type="logical" name="LSPECTRALGW"> F  </i>
   <i type="logical" name="LSINGLES"> F  </i>
   <i type="logical" name="LFERMIGW"> F  </i>
   <i type="logical" name="ODDONLYGW"> F  </i>
   <i type="logical" name="EVENONLYGW"> F  </i>
   <i type="int" name="NKREDLFX">     1</i>
   <i type="int" name="NKREDLFY">     1</i>
   <i type="int" name="NKREDLFZ">     1</i>
   <i type="int" name="MAXMEM">  2800</i>
   <i type="int" name="TELESCOPE">     0</i>
   <i type="int" name="TAUPAR">     1</i>
   <i type="int" name="OMEGAPAR">    -1</i>
   <i name="LAMBDA">      1.00000000</i>
  </separator>
  <separator name="External order field" >
   <i name="OFIELD_KAPPA">      0.00000000</i>
   <v name="OFIELD_K">      0.00000000      0.00000000      0.00000000</v>
   <i name="OFIELD_Q6_NEAR">      0.00000000</i>
   <i name="OFIELD_Q6_FAR">      0.00000000</i>
   <i name="OFIELD_A">      0.00000000</i>
  </separator>
 </parameters>
 <atominfo>
  <atoms>      62 </atoms>
  <types>       5 </types>
  <array name="atoms" >
   <dimension dim="1">ion</dimension>
   <field type="string">element</field>
   <field type="int">atomtype</field>
   <set>
    <rc><c>Li</c><c>   1</c></rc>
    <rc><c>Li</c><c>   1</c></rc>
    <rc><c>Li</c><c>   1</c></rc>
    <rc><c>Li</c><c>   1</c></rc>
    <rc><c>Li</c><c>   1</c></rc>
    <rc><c>Li</c><c>   1</c></rc>
    <rc><c>Li</c><c>   1</c></rc>
    <rc><c>Li</c><c>   1</c></rc>
    <rc><c>Li</c><c>   1</c></rc>
    <rc><c>Li</c><c>   1</c></rc>
    <rc><c>Li</c><c>   1</c></rc>
    <rc><c>Li</c><c>   1</c></rc>
    <rc><c>Mg</c><c>   2</c></rc>
    <rc><c>Mg</c><c>   2</c></rc>
    <rc><c>Bi</c><c>   3</c></rc>
    <rc><c>Bi</c><c>   3</c></rc>
    <rc><c>Bi</c><c>   3</c></rc>
    <rc><c>Bi</c><c>   3</c></rc>
    <rc><c>Bi</c><c>   3</c></rc>
    <rc><c>Bi</c><c>   3</c></rc>
    <rc><c>Bi</c><c>   3</c></rc>
    <rc><c>Bi</c><c>   3</c></rc>
    <rc><c>Bi</c><c>   3</c></rc>
    <rc><c>Bi</c><c>   3</c></rc>
    <rc><c>Bi</c><c>   3</c></rc>
    <rc><c>Bi</c><c>   3</c></rc>
    <rc><c>Bi</c><c>   3</c></rc>
    <rc><c>Bi</c><c>   3</c></rc>
    <rc><c>Bi</c><c>   3</c></rc>
    <rc><c>Bi</c><c>   3</c></rc>
    <rc><c>S </c><c>   4</c></rc>
    <rc><c>S </c><c>   4</c></rc>
    <rc><c>S </c><c>   4</c></rc>
    <rc><c>S </c><c>   4</c></rc>
    <rc><c>S </c><c>   4</c></rc>
    <rc><c>S </c><c>   4</c></rc>
    <rc><c>S </c><c>   4</c></rc>
    <rc><c>S </c><c>   4</c></rc>
    <rc><c>S </c><c>   4</c></rc>
    <rc><c>S </c><c>   4</c></rc>
    <rc><c>S </c><c>   4</c></rc>
    <rc><c>S </c><c>   4</c></rc>
    <rc><c>S </c><c>   4</c></rc>
    <rc><c>S </c><c>   4</c></rc>
    <rc><c>S </c><c>   4</c></rc>
    <rc><c>S </c><c>   4</c></rc>
    <rc><c>O </c><c>   5</c></rc>
    <rc><c>O </c><c>   5</c></rc>
    <rc><c>O </c><c>   5</c></rc>
    <rc><c>O </c><c>   5</c></rc>
    <rc><c>O </c><c>   5</c></rc>
    <rc><c>O </c><c>   5</c></rc>
    <rc><c>O </c><c>   5</c></rc>
    <rc><c>O </c><c>   5</c></rc>
    <rc><c>O </c><c>   5</c></rc>
    <rc><c>O </c><c>   5</c></rc>
    <rc><c>O </c><c>   5</c></rc>
    <rc><c>O </c><c>   5</c></rc>
    <rc><c>O </c><c>   5</c></rc>
    <rc><c>O </c><c>   5</c></rc>
    <rc><c>O </c><c>   5</c></rc>
    <rc><c>O </c><c>   5</c></rc>
   </set>
  </array>
  <array name="atomtypes" >
   <dimension dim="1">type</dimension>
   <field type="int">atomspertype</field>
   <field type="string">element</field>
   <field>mass</field>
   <field>valence</field>
   <field type="string">pseudopotential</field>
   <set>
    <rc><c>  12</c><c>Li</c><c>      7.01000000</c><c>      3.00000000</c><c>  PAW_PBE Li_sv 10Sep2004               </c></rc>
    <rc><c>   2</c><c>Mg</c><c>     24.30500000</c><c>      2.00000000</c><c>  PAW_PBE Mg 13Apr2007                  </c></rc>
    <rc><c>  16</c><c>Bi</c><c>    208.98000000</c><c>     15.00000000</c><c>  PAW_PBE Bi_d 06Sep2000                </c></rc>
    <rc><c>  16</c><c>S </c><c>     32.06600000</c><c>      6.00000000</c><c>  PAW_PBE S 06Sep2000                   </c></rc>
    <rc><c>  16</c><c>O </c><c>     16.00000000</c><c>      6.00000000</c><c>  PAW_PBE O 08Apr2002                   </c></rc>
   </set>
  </array>
 </atominfo>
 <structure name="initialpos" >
  <crystal>
   <varray name="basis" >
    <v>      11.17850000       0.00000000       0.00000000 </v>
    <v>       0.00000000       9.57460000       0.00000000 </v>
    <v>       0.00000000       0.00000000      11.18240000 </v>
   </varray>
   <i name="volume">   1196.84853820 </i>
   <varray name="rec_basis" >
    <v>       0.08945744       0.00000000       0.00000000 </v>
    <v>       0.00000000       0.10444301       0.00000000 </v>
    <v>       0.00000000       0.00000000       0.08942624 </v>
   </varray>
  </crystal>
  <varray name="positions" >
   <v>       0.12461000       0.99984000       0.18687000 </v>
   <v>       0.37461000       0.00017000       0.18687000 </v>
   <v>       0.62539000       0.99984000       0.43687000 </v>
   <v>       0.87539000       0.00017000       0.43687000 </v>
   <v>       0.62461000       0.99984000       0.18687000 </v>
   <v>       0.87461000       0.00017000       0.18687000 </v>
   <v>       0.37539000       0.00017000       0.93687000 </v>
   <v>       0.37461000       0.00017000       0.68687000 </v>
   <v>       0.62539000       0.99984000       0.93687000 </v>
   <v>       0.87539000       0.00017000       0.93687000 </v>
   <v>       0.62461000       0.99984000       0.68687000 </v>
   <v>       0.87461000       0.00017000       0.68687000 </v>
   <v>       0.12539000       0.99984000       0.93687000 </v>
   <v>       0.12461000       0.99984000       0.68687000 </v>
   <v>       0.00013000       0.29519000       0.06281000 </v>
   <v>       0.25013000       0.70481000       0.06281000 </v>
   <v>       0.24987000       0.29519000       0.31282000 </v>
   <v>       0.49987000       0.70481000       0.31282000 </v>
   <v>       0.50013000       0.29519000       0.06281000 </v>
   <v>       0.75013000       0.70481000       0.06281000 </v>
   <v>       0.74987000       0.29519000       0.31282000 </v>
   <v>       0.99987000       0.70481000       0.31282000 </v>
   <v>       0.00013000       0.29519000       0.56281000 </v>
   <v>       0.25013000       0.70481000       0.56281000 </v>
   <v>       0.24987000       0.29519000       0.81282000 </v>
   <v>       0.49987000       0.70481000       0.81282000 </v>
   <v>       0.50013000       0.29519000       0.56281000 </v>
   <v>       0.75013000       0.70481000       0.56281000 </v>
   <v>       0.74987000       0.29519000       0.81282000 </v>
   <v>       0.99987000       0.70481000       0.81282000 </v>
   <v>       0.25005000       0.32677000       0.06286000 </v>
   <v>       0.00005000       0.67323000       0.06286000 </v>
   <v>       0.49995000       0.32677000       0.31286000 </v>
   <v>       0.24995000       0.67323000       0.31286000 </v>
   <v>       0.75005000       0.32677000       0.06286000 </v>
   <v>       0.50005000       0.67323000       0.06286000 </v>
   <v>       0.99995000       0.32677000       0.31286000 </v>
   <v>       0.74995000       0.67323000       0.31286000 </v>
   <v>       0.25005000       0.32677000       0.56286000 </v>
   <v>       0.00005000       0.67323000       0.56286000 </v>
   <v>       0.49995000       0.32677000       0.81286000 </v>
   <v>       0.24995000       0.67323000       0.81286000 </v>
   <v>       0.75005000       0.32677000       0.56286000 </v>
   <v>       0.50005000       0.67323000       0.56286000 </v>
   <v>       0.99995000       0.32677000       0.81286000 </v>
   <v>       0.74995000       0.67323000       0.81286000 </v>
   <v>       0.49987000       0.07798000       0.06246000 </v>
   <v>       0.24987000       0.92202000       0.06246000 </v>
   <v>       0.25013000       0.07798000       0.31246000 </v>
   <v>       0.00013000       0.92202000       0.31246000 </v>
   <v>       0.99987000       0.07798000       0.06246000 </v>
   <v>       0.74987000       0.92202000       0.06246000 </v>
   <v>       0.75013000       0.07798000       0.31246000 </v>
   <v>       0.50013000       0.92202000       0.31246000 </v>
   <v>       0.49987000       0.07798000       0.56246000 </v>
   <v>       0.24987000       0.92202000       0.56246000 </v>
   <v>       0.25013000       0.07798000       0.81246000 </v>
   <v>       0.00013000       0.92202000       0.81246000 </v>
   <v>       0.99987000       0.07798000       0.56246000 </v>
   <v>       0.74987000       0.92202000       0.56246000 </v>
   <v>       0.75013000       0.07798000       0.81246000 </v>
   <v>       0.50013000       0.92202000       0.81246000 </v>
  </varray>
 </structure>
 <calculation>
  <scstep>
   <time name="dav">   65.65   65.81</time>
   <time name="total">   65.74   65.90</time>
   <energy>
    <i name="alphaZ">   1079.87189334 </i>
    <i name="ewald"> -31095.79122393 </i>
    <i name="hartreedc"> -12727.84835244 </i>
    <i name="XCdc">   1468.95722483 </i>
    <i name="pawpsdc">  36917.91861236 </i>
    <i name="pawaedc"> -36503.41947684 </i>
    <i name="eentropy">      0.00000000 </i>
    <i name="bandstr">   1587.36462391 </i>
    <i name="atom">  45173.57650906 </i>
    <i name="e_fr_energy">   5900.62981030 </i>
    <i name="e_wo_entrp">   5900.62981030 </i>
    <i name="e_0_energy">   5900.62981030 </i>
   </energy>
  </scstep>
  <scstep>
   <time name="dav">   65.44   65.47</time>
   <time name="total">   65.45   65.48</time>
   <energy>
    <i name="e_fr_energy">    761.61057406 </i>
    <i name="e_wo_entrp">    761.61057406 </i>
    <i name="e_0_energy">    761.61057406 </i>
   </energy>
  </scstep>
  <scstep>
   <time name="dav">   71.78   71.93</time>
   <time name="total">   71.78   71.93</time>
   <energy>
    <i name="e_fr_energy">   -241.49332004 </i>
    <i name="e_wo_entrp">   -241.49332004 </i>
    <i name="e_0_energy">   -241.49332004 </i>
   </energy>
  </scstep>
  <scstep>
   <time name="dav">   80.35   80.38</time>
   <time name="total">   80.36   80.39</time>
   <energy>
    <i name="e_fr_energy">   -351.18213727 </i>
    <i name="e_wo_entrp">   -351.18213727 </i>
    <i name="e_0_energy">   -351.18213727 </i>
   </energy>
  </scstep>
  <scstep>
   <time name="dav">  105.14  105.17</time>
   <time name="total">  105.94  105.98</time>
   <energy>
    <i name="e_fr_energy">   -360.23683301 </i>
    <i name="e_wo_entrp">   -360.23683301 </i>
    <i name="e_0_energy">   -360.23683301 </i>
   </energy>
  </scstep>
  <scstep>
   <time name="dav">   94.03   94.06</time>
   <time name="total">   94.83   94.87</time>
   <energy>
    <i name="e_fr_energy">   -300.18387671 </i>
    <i name="e_wo_entrp">   -300.18387671 </i>
    <i name="e_0_energy">   -300.18387671 </i>
   </energy>
  </scstep>
  <scstep>
   <time name="dav">   71.26   71.72</time>
   <time name="total">   72.06   72.52</time>
   <energy>
    <i name="e_fr_energy">   -302.12640230 </i>
    <i name="e_wo_entrp">   -302.12640230 </i>
    <i name="e_0_energy">   -302.12640230 </i>
   </energy>
  </scstep>
  <scstep>
   <time name="dav">   83.10   83.35</time>
   <time name="total">   83.92   84.17</time>
   <energy>
    <i name="e_fr_energy">   -300.66843490 </i>
    <i name="e_wo_entrp">   -300.66843490 </i>
    <i name="e_0_energy">   -300.66843490 </i>
   </energy>
  </scstep>
  <scstep>
   <time name="dav">   74.54   74.94</time>
   <time name="total">   75.34   75.74</time>
   <energy>
    <i name="e_fr_energy">   -299.95750419 </i>
    <i name="e_wo_entrp">   -299.95750419 </i>
    <i name="e_0_energy">   -299.95750419 </i>
   </energy>
  </scstep>
  <scstep>
   <time name="dav">   77.47   77.75</time>
   <time name="total">   78.26   78.56</time>
   <energy>
    <i name="e_fr_energy">   -299.99398544 </i>
    <i name="e_wo_entrp">   -299.99398544 </i>
    <i name="e_0_energy">   -299.99398544 </i>
   </energy>
  </scstep>
  <scstep>
   <time name="dav">   95.82   96.14</time>
   <time name="total">   96.62   96.94</time>
   <energy>
    <i name="e_fr_energy">   -299.99784358 </i>
    <i name="e_wo_entrp">   -299.99784358 </i>
    <i name="e_0_energy">   -299.99784358 </i>
   </energy>
  </scstep>
  <scstep>
   <time name="dav">   81.16   82.54</time>
   <time name="total">   81.96   83.35</time>
   <energy>
    <i name="e_fr_energy">   -300.00313124 </i>
    <i name="e_wo_entrp">   -300.00313124 </i>
    <i name="e_0_energy">   -300.00313124 </i>
   </energy>
  </scstep>
  <scstep>
   <time name="dav">   84.60   85.64</time>
   <time name="total">   85.41   86.44</time>
   <energy>
    <i name="e_fr_energy">   -300.00319969 </i>
    <i name="e_wo_entrp">   -300.00319969 </i>
    <i name="e_0_energy">   -300.00319969 </i>
   </energy>
  </scstep>
  <scstep>
   <time name="dav">   71.25   71.54</time>
   <time name="total">   72.05   72.35</time>
   <energy>
    <i name="e_fr_energy">   -300.00332229 </i>
    <i name="e_wo_entrp">   -300.00332229 </i>
    <i name="e_0_energy">   -300.00332229 </i>
   </energy>
  </scstep>
  <scstep>
   <time name="dav">   88.53   89.06</time>
   <time name="total">   89.33   89.86</time>
   <energy>
    <i name="e_fr_energy">   -300.00342456 </i>
    <i name="e_wo_entrp">   -300.00342456 </i>
    <i name="e_0_energy">   -300.00342456 </i>
   </energy>
  </scstep>
  <scstep>
   <time name="dav">   80.58   80.84</time>
   <time name="total">   81.37   81.64</time>
   <energy>
    <i name="e_fr_energy">   -300.00344271 </i>
    <i name="e_wo_entrp">   -300.00344271 </i>
    <i name="e_0_energy">   -300.00344271 </i>
   </energy>
  </scstep>
  <scstep>
   <time name="dav">   70.48   70.99</time>
   <time name="total">   71.28   71.79</time>
   <energy>
    <i name="e_fr_energy">   -300.00345097 </i>
    <i name="e_wo_entrp">   -300.00345097 </i>
    <i name="e_0_energy">   -300.00345097 </i>
   </energy>
  </scstep>
  <scstep>
   <time name="dav">   71.33   71.90</time>
   <time name="total">   72.21   72.79</time>
   <energy>
    <i name="e_fr_energy">   -300.00345223 </i>
    <i name="e_wo_entrp">   -300.00345223 </i>
    <i name="e_0_energy">   -300.00345223 </i>
   </energy>
  </scstep>
  <scstep>
   <time name="dav">   55.79   56.23</time>
   <time name="total">   55.87   56.30</time>
   <energy>
    <i name="alphaZ">   1079.87189334 </i>
    <i name="ewald"> -31095.79122393 </i>
    <i name="hartreedc"> -12959.41363226 </i>
    <i name="XCdc">   1491.65071688 </i>
    <i name="pawpsdc">  43944.90549726 </i>
    <i name="pawaedc"> -43506.19707220 </i>
    <i name="eentropy">      0.00000000 </i>
    <i name="bandstr">  -4428.60614119 </i>
    <i name="atom">  45173.57650906 </i>
    <i name="e_fr_energy">   -300.00345302 </i>
    <i name="e_wo_entrp">   -300.00345302 </i>
    <i name="e_0_energy">   -300.00345302 </i>
   </energy>
  </scstep>
  <structure>
   <crystal>
    <varray name="basis" >
     <v>      11.17850000       0.00000000       0.00000000 </v>
     <v>       0.00000000       9.57460000       0.00000000 </v>
     <v>       0.00000000       0.00000000      11.18240000 </v>
    </varray>
    <i name="volume">   1196.84853820 </i>
    <varray name="rec_basis" >
     <v>       0.08945744       0.00000000       0.00000000 </v>
     <v>       0.00000000       0.10444301       0.00000000 </v>
     <v>       0.00000000       0.00000000       0.08942624 </v>
    </varray>
   </crystal>
   <varray name="positions" >
    <v>       0.12461000       0.99984000       0.18687000 </v>
    <v>       0.37461000       0.00017000       0.18687000 </v>
    <v>       0.62539000       0.99984000       0.43687000 </v>
    <v>       0.87539000       0.00017000       0.43687000 </v>
    <v>       0.62461000       0.99984000       0.18687000 </v>
    <v>       0.87461000       0.00017000       0.18687000 </v>
    <v>       0.37539000       0.00017000       0.93687000 </v>
    <v>       0.37461000       0.00017000       0.68687000 </v>
    <v>       0.62539000       0.99984000       0.93687000 </v>
    <v>       0.87539000       0.00017000       0.93687000 </v>
    <v>       0.62461000       0.99984000       0.68687000 </v>
    <v>       0.87461000       0.00017000       0.68687000 </v>
    <v>       0.12539000       0.99984000       0.93687000 </v>
    <v>       0.12461000       0.99984000       0.68687000 </v>
    <v>       0.00013000       0.29519000       0.06281000 </v>
    <v>       0.25013000       0.70481000       0.06281000 </v>
    <v>       0.24987000       0.29519000       0.31282000 </v>
    <v>       0.49987000       0.70481000       0.31282000 </v>
    <v>       0.50013000       0.29519000       0.06281000 </v>
    <v>       0.75013000       0.70481000       0.06281000 </v>
    <v>       0.74987000       0.29519000       0.31282000 </v>
    <v>       0.99987000       0.70481000       0.31282000 </v>
    <v>       0.00013000       0.29519000       0.56281000 </v>
    <v>       0.25013000       0.70481000       0.56281000 </v>
    <v>       0.24987000       0.29519000       0.81282000 </v>
    <v>       0.49987000       0.70481000       0.81282000 </v>
    <v>       0.50013000       0.29519000       0.56281000 </v>
    <v>       0.75013000       0.70481000       0.56281000 </v>
    <v>       0.74987000       0.29519000       0.81282000 </v>
    <v>       0.99987000       0.70481000       0.81282000 </v>
    <v>       0.25005000       0.32677000       0.06286000 </v>
    <v>       0.00005000       0.67323000       0.06286000 </v>
    <v>       0.49995000       0.32677000       0.31286000 </v>
    <v>       0.24995000       0.67323000       0.31286000 </v>
    <v>       0.75005000       0.32677000       0.06286000 </v>
    <v>       0.50005000       0.67323000       0.06286000 </v>
    <v>       0.99995000       0.32677000       0.31286000 </v>
    <v>       0.74995000       0.67323000       0.31286000 </v>
    <v>       0.25005000       0.32677000       0.56286000 </v>
    <v>       0.00005000       0.67323000       0.56286000 </v>
    <v>       0.49995000       0.32677000       0.81286000 </v>
    <v>       0.24995000       0.67323000       0.81286000 </v>
    <v>       0.75005000       0.32677000       0.56286000 </v>
    <v>       0.50005000       0.67323000       0.56286000 </v>
    <v>       0.99995000       0.32677000       0.81286000 </v>
    <v>       0.74995000       0.67323000       0.81286000 </v>
    <v>       0.49987000       0.07798000       0.06246000 </v>
    <v>       0.24987000       0.92202000       0.06246000 </v>
    <v>       0.25013000       0.07798000       0.31246000 </v>
    <v>       0.00013000       0.92202000       0.31246000 </v>
    <v>       0.99987000       0.07798000       0.06246000 </v>
    <v>       0.74987000       0.92202000       0.06246000 </v>
    <v>       0.75013000       0.07798000       0.31246000 </v>
    <v>       0.50013000       0.92202000       0.31246000 </v>
    <v>       0.49987000       0.07798000       0.56246000 </v>
    <v>       0.24987000       0.92202000       0.56246000 </v>
    <v>       0.25013000       0.07798000       0.81246000 </v>
    <v>       0.00013000       0.92202000       0.81246000 </v>
    <v>       0.99987000       0.07798000       0.56246000 </v>
    <v>       0.74987000       0.92202000       0.56246000 </v>
    <v>       0.75013000       0.07798000       0.81246000 </v>
    <v>       0.50013000       0.92202000       0.81246000 </v>
   </varray>
  </structure>
  <varray name="forces" >
   <v>       0.18148268       0.05127695       1.24251426 </v>
   <v>       0.00208187       0.12571681       0.84017024 </v>
   <v>      -0.53114351       0.00330555      -0.03904992 </v>
   <v>       0.35775668      -0.06635634      -0.11823329 </v>
   <v>      -0.18378753      -0.05664585       0.27027634 </v>
   <v>       0.02582641      -0.13067635       0.35682987 </v>
   <v>       0.63402583      -0.06316444       0.12859513 </v>
   <v>       0.46829885      -0.12854492      -0.84314791 </v>
   <v>      -0.03680607       0.00165363       0.04531382 </v>
   <v>      -0.64708284       0.06758505       0.12928126 </v>
   <v>      -0.18598920       0.06136303      -0.25286114 </v>
   <v>      -0.45585531       0.13191049      -0.34574968 </v>
   <v>       0.04422245       0.00831651       1.10736664 </v>
   <v>       0.28662793      -0.09359928      -2.38368220 </v>
   <v>      -0.14027384       1.09605823       0.56440528 </v>
   <v>       0.28653977      -1.11355280       0.61170682 </v>
   <v>       0.15030794      -1.94118380       0.38466053 </v>
   <v>      -0.16863750       1.05072914       0.25960440 </v>
   <v>       0.05600314       0.02602546       0.34796614 </v>
   <v>      -0.21669605      -0.02203338       0.30157119 </v>
   <v>      -0.15644652      -0.00425672       0.11464216 </v>
   <v>       0.19261072       0.98058970       0.25356467 </v>
   <v>       0.06110740       0.05619143      -0.62520553 </v>
   <v>       0.25859514       0.92115677      -0.74898944 </v>
   <v>       0.46296826       2.11666796      -0.25701967 </v>
   <v>       0.13982644      -0.06787351      -0.19815998 </v>
   <v>      -0.12697077      -1.02996492      -0.41966237 </v>
   <v>      -0.22334256       0.00046552      -0.27461767 </v>
   <v>      -0.27089165       0.07055235      -0.15705540 </v>
   <v>      -0.30473238      -2.09406723      -0.21117251 </v>
   <v>      -0.21436010       0.08444286      -0.54248937 </v>
   <v>       0.13325210      -0.04600653      -0.43353881 </v>
   <v>       0.23308695       0.25211493      -0.19991728 </v>
   <v>      -0.07385163      -0.18944728      -0.31506073 </v>
   <v>       0.16312526       0.14376480      -0.14478702 </v>
   <v>      -0.09189827      -0.18430461      -0.24162151 </v>
   <v>      -0.21913284       0.19328160      -0.19339962 </v>
   <v>       0.07341066      -0.26279010      -0.07754343 </v>
   <v>      -0.22633082       0.08993649       0.60279894 </v>
   <v>      -0.05296050      -0.11282140       0.47831097 </v>
   <v>      -0.14527886       0.15778692       0.16152843 </v>
   <v>      -0.31294575       0.00241017       0.24144614 </v>
   <v>       0.17915994       0.22512751       0.16125403 </v>
   <v>       0.10315665      -0.22231247       0.27276532 </v>
   <v>       0.22554606      -0.05515868       0.14857603 </v>
   <v>       0.22765379      -0.11335004       0.06379086 </v>
   <v>      -0.07431779      -0.04280284      -0.24543434 </v>
   <v>      -0.66338580       0.93475776      -0.97305434 </v>
   <v>      -0.08202614       1.55766763      -1.34474581 </v>
   <v>      -0.69485846      -0.78870574      -0.76149667 </v>
   <v>       0.59393463      -0.97530122      -0.92171385 </v>
   <v>       0.17146882       0.08331451      -0.17561444 </v>
   <v>       0.07786684       0.07301711      -0.08663093 </v>
   <v>       0.68838626      -0.90381733      -0.73083764 </v>
   <v>       0.63823784       0.85435636       0.80745909 </v>
   <v>      -0.58720267      -0.59991751       2.02620276 </v>
   <v>      -1.19424895      -1.70229859       0.25341925 </v>
   <v>       1.07470456       1.73865367       0.18903500 </v>
   <v>      -0.15431937      -0.06411341       1.48364908 </v>
   <v>       0.16472748      -0.02836994       0.17159680 </v>
   <v>       0.24320829      -0.15569678       0.08480855 </v>
   <v>      -0.16343398       0.09893712       0.15738248 </v>
  </varray>
  <varray name="stress" >
   <v>      -4.82176598       0.34092964       0.27671102 </v>
   <v>       0.34092984     -14.04944224      -0.07067792 </v>
   <v>       0.27671089      -0.07067800      -8.19644049 </v>
  </varray>
  <energy>
   <i name="e_fr_energy">   -315.83160579 </i>
   <i name="e_wo_entrp">   -315.83160579 </i>
   <i name="e_0_energy">      0.00000000 </i>
  </energy>
  <time name="totalsc"> 1624.32 1632.84</time>
 </calculation>
 <calculation>
  <scstep>
   <time name="dav">   66.32   66.52</time>
   <time name="total">   67.12   67.32</time>
   <energy>
    <i name="alphaZ">   1097.04981322 </i>
    <i name="ewald"> -31256.05164706 </i>
    <i name="hartreedc"> -13023.25720315 </i>
    <i name="XCdc">   1501.00605008 </i>
    <i name="pawpsdc">  43944.70378145 </i>
    <i name="pawaedc"> -43505.99749754 </i>
    <i name="eentropy">      0.00000000 </i>
    <i name="bandstr">  -4230.45731421 </i>
    <i name="atom">  45173.57650906 </i>
    <i name="e_fr_energy">   -299.42750815 </i>
    <i name="e_wo_entrp">   -299.42750815 </i>
    <i name="e_0_energy">   -299.42750815 </i>
   </energy>
  </scstep>
  <scstep>
   <time name="dav">   75.19   75.21</time>
   <time name="total">   75.98   76.01</time>
   <energy>
    <i name="e_fr_energy">   -301.62274411 </i>
    <i name="e_wo_entrp">   -301.62274411 </i>
    <i name="e_0_energy">   -301.62274411 </i>
   </energy>
  </scstep>
  <scstep>
   <time name="dav">   96.82   97.00</time>
   <time name="total">   97.61   97.80</time>
   <energy>
    <i name="e_fr_energy">   -301.40585051 </i>
    <i name="e_wo_entrp">   -301.40585051 </i>
    <i name="e_0_energy">   -301.40585051 </i>
   </energy>
  </scstep>
  <scstep>
   <time name="dav">   84.72   84.81</time>
   <time name="total">   85.52   85.61</time>
   <energy>
    <i name="e_fr_energy">   -301.30206592 </i>
    <i name="e_wo_entrp">   -301.30206592 </i>
    <i name="e_0_energy">   -301.30206592 </i>
   </energy>
  </scstep>
  <scstep>
   <time name="dav">   81.23   81.57</time>
   <time name="total">   82.03   82.37</time>
   <energy>
    <i name="e_fr_energy">   -301.30056401 </i>
    <i name="e_wo_entrp">   -301.30056401 </i>
    <i name="e_0_energy">   -301.30056401 </i>
   </energy>
  </scstep>
  <scstep>
   <time name="dav">   86.68   86.80</time>
   <time name="total">   87.47   87.59</time>
   <energy>
    <i name="e_fr_energy">   -301.29908378 </i>
    <i name="e_wo_entrp">   -301.29908378 </i>
    <i name="e_0_energy">   -301.29908378 </i>
   </energy>
  </scstep>
  <scstep>
   <time name="dav">   77.51   77.86</time>
   <time name="total">   78.40   78.76</time>
   <energy>
    <i name="e_fr_energy">   -301.29807600 </i>
    <i name="e_wo_entrp">   -301.29807600 </i>
    <i name="e_0_energy">   -301.29807600 </i>
   </energy>
  </scstep>
  <scstep>
   <time name="dav">   92.73   93.49</time>
   <time name="total">   93.52   94.28</time>
   <energy>
    <i name="e_fr_energy">   -301.29810793 </i>
    <i name="e_wo_entrp">   -301.29810793 </i>
    <i name="e_0_energy">   -301.29810793 </i>
   </energy>
  </scstep>
  <scstep>
   <time name="dav">   81.71   82.49</time>
   <time name="total">   82.51   83.28</time>
   <energy>
    <i name="e_fr_energy">   -301.29815174 </i>
    <i name="e_wo_entrp">   -301.29815174 </i>
    <i name="e_0_energy">   -301.29815174 </i>
   </energy>
  </scstep>
  <scstep>
   <time name="dav">   85.39   86.32</time>
   <time name="total">   86.19   87.12</time>
   <energy>
    <i name="e_fr_energy">   -301.29815541 </i>
    <i name="e_wo_entrp">   -301.29815541 </i>
    <i name="e_0_energy">   -301.29815541 </i>
   </energy>
  </scstep>
  <scstep>
   <time name="dav">   72.91   73.48</time>
   <time name="total">   73.70   74.28</time>
   <energy>
    <i name="e_fr_energy">   -301.29815513 </i>
    <i name="e_wo_entrp">   -301.29815513 </i>
    <i name="e_0_energy">   -301.29815513 </i>
   </energy>
  </scstep>
  <scstep>
   <time name="dav">   67.49   68.10</time>
   <time name="total">   67.56   68.18</time>
   <energy>
    <i name="alphaZ">   1097.04981322 </i>
    <i name="ewald"> -31256.05164706 </i>
    <i name="hartreedc"> -12880.25153285 </i>
    <i name="XCdc">   1494.45562137 </i>
    <i name="pawpsdc">  44304.91112136 </i>
    <i name="pawaedc"> -43869.10350822 </i>
    <i name="eentropy">      0.00000000 </i>
    <i name="bandstr">  -4365.88453217 </i>
    <i name="atom">  45173.57650906 </i>
    <i name="e_fr_energy">   -301.29815528 </i>
    <i name="e_wo_entrp">   -301.29815528 </i>
    <i name="e_0_energy">   -301.29815528 </i>
   </energy>
  </scstep>
  <structure>
   <crystal>
    <varray name="basis" >
     <v>      11.14717019       0.00221522       0.00179795 </v>
     <v>       0.00189738       9.49641061      -0.00039334 </v>
     <v>       0.00179858      -0.00045940      11.12912439 </v>
    </varray>
    <i name="volume">   1178.10794133 </i>
    <varray name="rec_basis" >
     <v>       0.08970887      -0.00001792      -0.00001450 </v>
     <v>      -0.00002093       0.10530295       0.00000435 </v>
     <v>      -0.00001449       0.00000372       0.08985433 </v>
    </varray>
   </crystal>
   <varray name="positions" >
    <v>       0.12539322       0.00009836       0.19223040 </v>
    <v>       0.37461898       0.00080344       0.19049463 </v>
    <v>       0.62309776       0.99985666       0.43670153 </v>
    <v>       0.87693396      -0.00016434       0.43635992 </v>
    <v>       0.62381683       0.99955458       0.18803602 </v>
    <v>       0.87472146      -0.00048843       0.18840942 </v>
    <v>       0.37812624      -0.00014826       0.93742478 </v>
    <v>       0.37663102      -0.00047769       0.68323253 </v>
    <v>       0.62523116       0.99984833       0.93706549 </v>
    <v>       0.87259741       0.00051053       0.93742774 </v>
    <v>       0.62380733       0.00014918       0.68577912 </v>
    <v>       0.87264268       0.00083465       0.68537838 </v>
    <v>       0.12558085       0.99988190       0.94164736 </v>
    <v>       0.12584699       0.99936839       0.67658642 </v>
    <v>      -0.00047537       0.30071261       0.06524493 </v>
    <v>       0.25136661       0.69919924       0.06544900 </v>
    <v>       0.25051868       0.28540914       0.31447949 </v>
    <v>       0.49914222       0.71010421       0.31393997 </v>
    <v>       0.50037169       0.29532113       0.06431118 </v>
    <v>       0.74919481       0.70469898       0.06411103 </v>
    <v>       0.74919483       0.29516855       0.31331458 </v>
    <v>       0.00070124       0.70975081       0.31391392 </v>
    <v>       0.00039372       0.29547313       0.56011276 </v>
    <v>       0.25124601       0.70945135       0.55957874 </v>
    <v>       0.25186802       0.30585506       0.81171118 </v>
    <v>       0.50047344       0.70446801       0.81196511 </v>
    <v>       0.49958204       0.29000041       0.56099951 </v>
    <v>       0.74916613       0.70481235       0.56162526 </v>
    <v>       0.74870092       0.29554549       0.81214244 </v>
    <v>       0.99855488       0.69425882       0.81190897 </v>
    <v>       0.24912489       0.32719547       0.06051961 </v>
    <v>       0.00062507       0.67299819       0.06098964 </v>
    <v>       0.50095593       0.32804031       0.31199753 </v>
    <v>       0.24963128       0.67227545       0.31150078 </v>
    <v>       0.75075399       0.32749437       0.06223537 </v>
    <v>       0.49965340       0.67230136       0.06181761 </v>
    <v>       0.99900430       0.32774387       0.31202564 </v>
    <v>       0.75026682       0.67190590       0.31252547 </v>
    <v>       0.24907323       0.32722315       0.56546057 </v>
    <v>      -0.00017856       0.67266154       0.56492351 </v>
    <v>       0.49932303       0.32756503       0.81355686 </v>
    <v>       0.24859943       0.67324214       0.81390164 </v>
    <v>       0.75082319       0.32790433       0.56355568 </v>
    <v>       0.50049519       0.67210985       0.56403675 </v>
    <v>       0.00092338       0.32649208       0.81350098 </v>
    <v>       0.75093248       0.67265887       0.81313520 </v>
    <v>       0.49954927       0.07776433       0.06140116 </v>
    <v>       0.24700705       0.92672988       0.05826209 </v>
    <v>       0.24977600       0.08582848       0.30665855 </v>
    <v>      -0.00286878       0.91804602       0.30917478 </v>
    <v>       0.00243322       0.07306584       0.05848358 </v>
    <v>       0.75061000       0.92243979       0.06170237 </v>
    <v>       0.75046605       0.07834790       0.31208626 </v>
    <v>       0.50310084       0.91746602       0.30930705 </v>
    <v>       0.50262442       0.08228477       0.56594351 </v>
    <v>       0.24733583       0.91899725       0.57120136 </v>
    <v>       0.24497602       0.06940279       0.81355329 </v>
    <v>       0.00476806       0.93078039       0.81327553 </v>
    <v>       0.99920401       0.07765696       0.56886070 </v>
    <v>       0.75058091       0.92187705       0.56320030 </v>
    <v>       0.75117961       0.07719550       0.81282588 </v>
    <v>       0.49942467       0.92251851       0.81313897 </v>
   </varray>
  </structure>
  <varray name="forces" >
   <v>       0.11220473       0.02237977       0.73609643 </v>
   <v>      -0.05328328       0.06329866       0.46716377 </v>
   <v>      -0.31763592       0.00484790      -0.02631939 </v>
   <v>       0.25008492      -0.03079819      -0.01864594 </v>
   <v>      -0.07739259      -0.02403825       0.12594288 </v>
   <v>       0.05121345      -0.07088096       0.11365607 </v>
   <v>       0.22344800      -0.03328276      -0.00435403 </v>
   <v>       0.19123911      -0.07326212      -0.39384119 </v>
   <v>      -0.02160610       0.00216967       0.02358528 </v>
   <v>      -0.23117236       0.03419391      -0.00819621 </v>
   <v>      -0.07142381       0.02859989      -0.09837613 </v>
   <v>      -0.17179299       0.07445724      -0.04214705 </v>
   <v>      -0.05505165       0.01660572      -0.06327086 </v>
   <v>      -0.12053087       0.10165199      -0.24907874 </v>
   <v>      -0.02686622      -0.08295688       0.10202118 </v>
   <v>       0.07944983       0.04537811       0.10217086 </v>
   <v>       0.08892418       2.32974332       0.30061156 </v>
   <v>      -0.05330096      -1.20654460       0.12530088 </v>
   <v>      -0.00532411       0.25455617       0.12378963 </v>
   <v>      -0.05946045      -0.20183279       0.13283592 </v>
   <v>      -0.08915555       0.39738459       0.03226631 </v>
   <v>       0.06516291      -1.02648445       0.09896302 </v>
   <v>      -0.01106283       0.27224496      -0.16429258 </v>
   <v>       0.14997760      -0.73427246      -0.33074970 </v>
   <v>       0.07668576      -0.12263952      -0.04173934 </v>
   <v>      -0.00994139      -0.19429587      -0.05159862 </v>
   <v>      -0.06609777       1.13503501      -0.20223838 </v>
   <v>      -0.08395800      -0.33823948      -0.10779783 </v>
   <v>      -0.03091154       0.12922345      -0.07103270 </v>
   <v>      -0.01566583       0.16997708      -0.04143885 </v>
   <v>      -0.10542681       0.21859356      -0.20519125 </v>
   <v>       0.06424765      -0.18450717      -0.15380617 </v>
   <v>       0.12557730       0.15555950      -0.10515892 </v>
   <v>      -0.03088160      -0.06637489      -0.17573968 </v>
   <v>       0.07233735       0.15220117      -0.05057725 </v>
   <v>      -0.04334598      -0.18198625      -0.08781705 </v>
   <v>      -0.10465707       0.11781750      -0.09843725 </v>
   <v>       0.03049131      -0.23238944      -0.03025997 </v>
   <v>      -0.13290795       0.04436887       0.30235017 </v>
   <v>       0.01344875      -0.11309770       0.20549464 </v>
   <v>      -0.04260887       0.17517587       0.05429147 </v>
   <v>      -0.11475256      -0.27585854       0.07326296 </v>
   <v>       0.09000122       0.20150639       0.06156259 </v>
   <v>       0.03750759      -0.12877412       0.12709419 </v>
   <v>       0.07559327       0.24609761       0.04688554 </v>
   <v>       0.07461262      -0.14436759       0.01967098 </v>
   <v>       0.00561978      -0.23887270      -0.02114976 </v>
   <v>      -0.06739033      -0.43621077      -0.05514954 </v>
   <v>      -0.02982259      -2.65834633      -1.13397959 </v>
   <v>      -0.53193130       1.15817758      -0.51552762 </v>
   <v>       0.10726784       0.42133980      -0.08709424 </v>
   <v>       0.01517159       0.20741691      -0.01917737 </v>
   <v>       0.01380662      -0.34448728       0.00071552 </v>
   <v>       0.52896505       1.33079012      -0.53202896 </v>
   <v>       0.52829867      -1.26282499       0.53045068 </v>
   <v>       0.07815481       0.59883122       0.94035029 </v>
   <v>      -0.45150258       0.63374433      -0.11996905 </v>
   <v>       0.46299353      -0.64093281      -0.10589848 </v>
   <v>      -0.40134928      -0.03095325       0.55047255 </v>
   <v>       0.01877155       0.29685451       0.00008057 </v>
   <v>      -0.00816351      -0.13667704       0.00924791 </v>
   <v>       0.00511766       0.17596682       0.00574584 </v>
  </varray>
  <varray name="stress" >
   <v>       4.78293733      -1.35911048      -0.42107650 </v>
   <v>      -1.35911035       9.21974582       0.58363451 </v>
   <v>      -0.42107620       0.58363446       5.32631939 </v>
  </varray>
  <energy>
   <i name="e_fr_energy">   -317.32501816 </i>
   <i name="e_wo_entrp">   -317.32501816 </i>
   <i name="e_0_energy">      0.00000000 </i>
  </energy>
  <time name="totalsc"> 1090.57 1096.46</time>
 </calculation>
 <calculation>
  <scstep>
   <time name="dav">   70.55   70.81</time>
   <time name="total">   71.31   71.61</time>
   <energy>
    <i name="alphaZ">   1095.19146769 </i>
    <i name="ewald"> -31241.03966770 </i>
    <i name="hartreedc"> -12871.54725078 </i>
    <i name="XCdc">   1493.42148090 </i>
    <i name="pawpsdc">  44304.94396683 </i>
    <i name="pawaedc"> -43869.13889035 </i>
    <i name="eentropy">      0.00000000 </i>
    <i name="bandstr">  -4386.73185254 </i>
    <i name="atom">  45173.57650906 </i>
    <i name="e_fr_energy">   -301.32423689 </i>
    <i name="e_wo_entrp">   -301.32423689 </i>
    <i name="e_0_energy">   -301.32423689 </i>
   </energy>
  </scstep>
  <scstep>
   <time name="dav">   70.89   71.91</time>
   <time name="total">   71.69   72.71</time>
   <energy>
    <i name="e_fr_energy">   -301.34768130 </i>
    <i name="e_wo_entrp">   -301.34768130 </i>
    <i name="e_0_energy">   -301.34768130 </i>
   </energy>
  </scstep>
  <scstep>
   <time name="dav">   90.45   91.46</time>
   <time name="total">   91.25   92.28</time>
   <energy>
    <i name="e_fr_energy">   -301.34549491 </i>
    <i name="e_wo_entrp">   -301.34549491 </i>
    <i name="e_0_energy">   -301.34549491 </i>
   </energy>
  </scstep>
  <scstep>
   <time name="dav">   84.08   84.74</time>
   <time name="total">   84.88   85.54</time>
   <energy>
    <i name="e_fr_energy">   -301.34431892 </i>
    <i name="e_wo_entrp">   -301.34431892 </i>
    <i name="e_0_energy">   -301.34431892 </i>
   </energy>
  </scstep>
  <scstep>
   <time name="dav">   80.95   81.16</time>
   <time name="total">   81.75   81.96</time>
   <energy>
    <i name="e_fr_energy">   -301.34426363 </i>
    <i name="e_wo_entrp">   -301.34426363 </i>
    <i name="e_0_energy">   -301.34426363 </i>
   </energy>
  </scstep>
  <scstep>
   <time name="dav">   79.30   79.86</time>
   <time name="total">   80.17   80.74</time>
   <energy>
    <i name="e_fr_energy">   -301.34423835 </i>
    <i name="e_wo_entrp">   -301.34423835 </i>
    <i name="e_0_energy">   -301.34423835 </i>
   </energy>
  </scstep>
  <scstep>
   <time name="dav">   87.35   87.41</time>
   <time name="total">   88.15   88.22</time>
   <energy>
    <i name="e_fr_energy">   -301.34421540 </i>
    <i name="e_wo_entrp">   -301.34421540 </i>
    <i name="e_0_energy">   -301.34421540 </i>
   </energy>
  </scstep>
  <scstep>
   <time name="dav">   85.60   85.68</time>
   <time name="total">   86.39   86.48</time>
   <energy>
    <i name="e_fr_energy">   -301.34421216 </i>
    <i name="e_wo_entrp">   -301.34421216 </i>
    <i name="e_0_energy">   -301.34421216 </i>
   </energy>
  </scstep>
  <scstep>
   <time name="dav">   68.90   68.95</time>
   <time name="total">   68.98   69.03</time>
   <energy>
    <i name="alphaZ">   1095.19146769 </i>
    <i name="ewald"> -31241.03966770 </i>
    <i name="hartreedc"> -12887.01569147 </i>
    <i name="XCdc">   1494.13385663 </i>
    <i name="pawpsdc">  44258.28177223 </i>
    <i name="pawaedc"> -43822.03816773 </i>
    <i name="eentropy">      0.00000000 </i>
    <i name="bandstr">  -4372.43429128 </i>
    <i name="atom">  45173.57650906 </i>
    <i name="e_fr_energy">   -301.34421255 </i>
    <i name="e_wo_entrp">   -301.34421255 </i>
    <i name="e_0_energy">   -301.34421255 </i>
   </energy>
  </scstep>
  <structure>
   <crystal>
    <varray name="basis" >
     <v>      11.15052644       0.00197791       0.00160534 </v>
     <v>       0.00169412       9.50478675      -0.00035121 </v>
     <v>       0.00160590      -0.00041018      11.13483161 </v>
    </varray>
    <i name="volume">   1180.10698140 </i>
    <varray name="rec_basis" >
     <v>       0.08968187      -0.00001599      -0.00001293 </v>
     <v>      -0.00001866       0.10521015       0.00000388 </v>
     <v>      -0.00001293       0.00000332       0.08980828 </v>
    </varray>
   </crystal>
   <varray name="positions" >
    <v>       0.12530918       0.00007045       0.19165343 </v>
    <v>       0.37461809       0.00073500       0.19010447 </v>
    <v>       0.62334401       0.99985480       0.43671963 </v>
    <v>       0.87676808      -0.00012819       0.43641486 </v>
    <v>       0.62390206       0.99958539       0.18791049 </v>
    <v>       0.87470950      -0.00041732       0.18824372 </v>
    <v>       0.37783230      -0.00011382       0.93736511 </v>
    <v>       0.37641383      -0.00040766       0.68362410 </v>
    <v>       0.62524822       0.99984743       0.93704445 </v>
    <v>       0.87289742       0.00047368       0.93736766 </v>
    <v>       0.62389355       0.00011578       0.68589652 </v>
    <v>       0.87285401       0.00076282       0.68553890 </v>
    <v>       0.12556043       0.99987736       0.94113313 </v>
    <v>       0.12571392       0.99941941       0.67769336 </v>
    <v>      -0.00041020       0.30011609       0.06498281 </v>
    <v>       0.25123371       0.69980527       0.06516498 </v>
    <v>       0.25044884       0.28646556       0.31430091 </v>
    <v>       0.49922052       0.70953237       0.31381939 </v>
    <v>       0.50034576       0.29530697       0.06414960 </v>
    <v>       0.74929530       0.70471094       0.06397097 </v>
    <v>       0.74926737       0.29517085       0.31326134 </v>
    <v>       0.00061205       0.70921717       0.31379617 </v>
    <v>       0.00036535       0.29544257       0.56040310 </v>
    <v>       0.25112615       0.70895009       0.55992655 </v>
    <v>       0.25165355       0.30470320       0.81183052 </v>
    <v>       0.50040860       0.70450497       0.81205714 </v>
    <v>       0.49964078       0.29056093       0.56119440 </v>
    <v>       0.74926965       0.70481207       0.56175276 </v>
    <v>       0.74882651       0.29550706       0.81221535 </v>
    <v>       0.99869595       0.69539840       0.81200705 </v>
    <v>       0.24922424       0.32714951       0.06077151 </v>
    <v>       0.00056326       0.67302325       0.06119098 </v>
    <v>       0.50084787       0.32790313       0.31209037 </v>
    <v>       0.24966548       0.67237855       0.31164708 </v>
    <v>       0.75067837       0.32741616       0.06230261 </v>
    <v>       0.49969597       0.67240166       0.06192981 </v>
    <v>       0.99910589       0.32763866       0.31211543 </v>
    <v>       0.75023275       0.67204893       0.31256148 </v>
    <v>       0.24917822       0.32717417       0.56518063 </v>
    <v>      -0.00015398       0.67272292       0.56470139 </v>
    <v>       0.49939041       0.32747914       0.81348184 </v>
    <v>       0.24874454       0.67324079       0.81378949 </v>
    <v>       0.75074016       0.32778183       0.56348080 </v>
    <v>       0.50044736       0.67223084       0.56391010 </v>
    <v>       0.00081882       0.32652212       0.81343200 </v>
    <v>       0.75082693       0.67272058       0.81310560 </v>
    <v>       0.49958370       0.07778762       0.06151513 </v>
    <v>       0.24731462       0.92622112       0.05871388 </v>
    <v>       0.24981408       0.08498080       0.30728298 </v>
    <v>      -0.00254676       0.91847519       0.30952836 </v>
    <v>       0.00215770       0.07359670       0.05891166 </v>
    <v>       0.75053050       0.92239447       0.06178393 </v>
    <v>       0.75042995       0.07830818       0.31212649 </v>
    <v>       0.50278156       0.91795798       0.30964650 </v>
    <v>       0.50232866       0.08181987       0.56556858 </v>
    <v>       0.24760817       0.91932362       0.57026042 </v>
    <v>       0.24552956       0.07032906       0.81343555 </v>
    <v>       0.00426998       0.92983431       0.81318779 </v>
    <v>       0.99927566       0.07769180       0.56817172 </v>
    <v>       0.75050455       0.92189251       0.56312062 </v>
    <v>       0.75106684       0.07728026       0.81278652 </v>
    <v>       0.49950047       0.92246464       0.81306587 </v>
   </varray>
  </structure>
  <varray name="forces" >
   <v>       0.12178884       0.02754412       0.79243873 </v>
   <v>      -0.04963820       0.07087911       0.50877288 </v>
   <v>      -0.34145207       0.00463474      -0.02782358 </v>
   <v>       0.26238283      -0.03493227      -0.02960226 </v>
   <v>      -0.08993980      -0.02858989       0.14277538 </v>
   <v>       0.04988568      -0.07783804       0.14074210 </v>
   <v>       0.26724887      -0.03604934       0.00969138 </v>
   <v>       0.21926427      -0.07819140      -0.44293291 </v>
   <v>      -0.02338806       0.00214495       0.02611121 </v>
   <v>      -0.27573846       0.03731680       0.00623908 </v>
   <v>      -0.08484122       0.03311002      -0.11631159 </v>
   <v>      -0.20095817       0.08029977      -0.07506801 </v>
   <v>      -0.04236549       0.01510458       0.07293356 </v>
   <v>      -0.05795100       0.06630625      -0.50018685 </v>
   <v>      -0.04011764       0.02094391       0.15425122 </v>
   <v>       0.10278423      -0.05662342       0.16045223 </v>
   <v>       0.09307936       1.67204217       0.28450620 </v>
   <v>      -0.06134780      -0.90405122       0.13486063 </v>
   <v>       0.00125133       0.22836769       0.14915807 </v>
   <v>      -0.07643979      -0.18160151       0.15179742 </v>
   <v>      -0.09668080       0.35161803       0.04109010 </v>
   <v>       0.07562515      -0.76187434       0.11070761 </v>
   <v>      -0.00328119       0.25001919      -0.21374716 </v>
   <v>       0.15909149      -0.52890253      -0.36711146 </v>
   <v>       0.11945170       0.04596694      -0.06691051 </v>
   <v>       0.00535676      -0.17978784      -0.06813591 </v>
   <v>      -0.06848871       0.84691204      -0.22069906 </v>
   <v>      -0.09955986      -0.29983012      -0.12610177 </v>
   <v>      -0.05589584       0.12222355      -0.08068738 </v>
   <v>      -0.04755427      -0.00108620      -0.06124124 </v>
   <v>      -0.11719848       0.20583322      -0.24312352 </v>
   <v>       0.07152540      -0.17089204      -0.18496037 </v>
   <v>       0.13804670       0.16771350      -0.11577813 </v>
   <v>      -0.03548526      -0.08088712      -0.19237144 </v>
   <v>       0.08229278       0.15165498      -0.06066822 </v>
   <v>      -0.04877532      -0.18262600      -0.10470154 </v>
   <v>      -0.11749925       0.12692575      -0.10951223 </v>
   <v>       0.03506580      -0.23613935      -0.03560849 </v>
   <v>      -0.14296347       0.05113446       0.33818950 </v>
   <v>       0.00605417      -0.11395967       0.23756583 </v>
   <v>      -0.05505475       0.17373863       0.06578742 </v>
   <v>      -0.13660794      -0.24825220       0.09065063 </v>
   <v>       0.09969831       0.20435142       0.07256712 </v>
   <v>       0.04518560      -0.13983316       0.14339275 </v>
   <v>       0.09203647       0.21680440       0.05733157 </v>
   <v>       0.09213899      -0.14156353       0.02429732 </v>
   <v>      -0.00283778      -0.21631340      -0.04602139 </v>
   <v>      -0.14640795      -0.30282910      -0.16906054 </v>
   <v>      -0.03323809      -2.01305429      -1.13421093 </v>
   <v>      -0.54695743       0.90176467      -0.53783489 </v>
   <v>       0.17261376       0.28665594      -0.18974941 </v>
   <v>       0.03207542       0.19328767      -0.03631376 </v>
   <v>       0.02079418      -0.29692807      -0.00867027 </v>
   <v>       0.54301536       1.03271649      -0.54900159 </v>
   <v>       0.53770072      -0.98236009       0.55559646 </v>
   <v>      -0.02005861       0.46492333       1.07151235 </v>
   <v>      -0.53804561       0.44907686      -0.07653015 </v>
   <v>       0.53475139      -0.45259861      -0.07203837 </v>
   <v>      -0.36423874      -0.04334982       0.66031199 </v>
   <v>       0.03481353       0.26034518       0.01875353 </v>
   <v>       0.01882711      -0.13787487       0.01756515 </v>
   <v>      -0.01283919       0.16645907       0.02266548 </v>
  </varray>
  <varray name="stress" >
   <v>       3.54638119      -1.09294503      -0.33355793 </v>
   <v>      -1.09294480       5.33935262       0.44900437 </v>
   <v>      -0.33355778       0.44900430       3.66149164 </v>
  </varray>
  <energy>
   <i name="e_fr_energy">   -317.34881807 </i>
   <i name="e_wo_entrp">   -317.34881807 </i>
   <i name="e_0_energy">      0.00000000 </i>
  </energy>
  <time name="totalsc">  838.18  842.44</time>
 </calculation>
 <calculation>
  <scstep>
   <time name="dav">   67.35   67.52</time>
   <time name="total">   68.14   68.32</time>
   <energy>
    <i name="alphaZ">   1092.93123245 </i>
    <i name="ewald"> -31336.06378027 </i>
    <i name="hartreedc"> -12770.67557751 </i>
    <i name="XCdc">   1492.22285666 </i>
    <i name="pawpsdc">  44258.42418704 </i>
    <i name="pawaedc"> -43822.18049499 </i>
    <i name="eentropy">      0.00000000 </i>
    <i name="bandstr">  -4389.03524351 </i>
    <i name="atom">  45173.57650906 </i>
    <i name="e_fr_energy">   -300.80031106 </i>
    <i name="e_wo_entrp">   -300.80031106 </i>
    <i name="e_0_energy">   -300.80031106 </i>
   </energy>
  </scstep>
  <scstep>
   <time name="dav">   78.02   78.13</time>
   <time name="total">   78.81   78.92</time>
   <energy>
    <i name="e_fr_energy">   -301.84254169 </i>
    <i name="e_wo_entrp">   -301.84254169 </i>
    <i name="e_0_energy">   -301.84254169 </i>
   </energy>
  </scstep>
  <scstep>
   <time name="dav">   90.57   90.61</time>
   <time name="total">   91.36   91.41</time>
   <energy>
    <i name="e_fr_energy">   -301.83207847 </i>
    <i name="e_wo_entrp">   -301.83207847 </i>
    <i name="e_0_energy">   -301.83207847 </i>
   </energy>
  </scstep>
  <scstep>
   <time name="dav">   79.53   79.85</time>
   <time name="total">   80.33   80.65</time>
   <energy>
    <i name="e_fr_energy">   -301.81207898 </i>
    <i name="e_wo_entrp">   -301.81207898 </i>
    <i name="e_0_energy">   -301.81207898 </i>
   </energy>
  </scstep>
  <scstep>
   <time name="dav">   75.96   76.09</time>
   <time name="total">   76.76   76.88</time>
   <energy>
    <i name="e_fr_energy">   -301.80102266 </i>
    <i name="e_wo_entrp">   -301.80102266 </i>
    <i name="e_0_energy">   -301.80102266 </i>
   </energy>
  </scstep>
  <scstep>
   <time name="dav">   81.42   81.68</time>
   <time name="total">   82.22   82.49</time>
   <energy>
    <i name="e_fr_energy">   -301.80146195 </i>
    <i name="e_wo_entrp">   -301.80146195 </i>
    <i name="e_0_energy">   -301.80146195 </i>
   </energy>
  </scstep>
  <scstep>
   <time name="dav">   92.53   92.77</time>
   <time name="total">   93.32   93.56</time>
   <energy>
    <i name="e_fr_energy">   -301.80145443 </i>
    <i name="e_wo_entrp">   -301.80145443 </i>
    <i name="e_0_energy">   -301.80145443 </i>
   </energy>
  </scstep>
  <scstep>
   <time name="dav">   77.26   77.43</time>
   <time name="total">   78.05   78.23</time>
   <energy>
    <i name="e_fr_energy">   -301.80138629 </i>
    <i name="e_wo_entrp">   -301.80138629 </i>
    <i name="e_0_energy">   -301.80138629 </i>
   </energy>
  </scstep>
  <scstep>
   <time name="dav">   83.32   83.97</time>
   <time name="total">   84.12   84.77</time>
   <energy>
    <i name="e_fr_energy">   -301.80138715 </i>
    <i name="e_wo_entrp">   -301.80138715 </i>
    <i name="e_0_energy">   -301.80138715 </i>
   </energy>
  </scstep>
  <scstep>
   <time name="dav">   72.97   73.48</time>
   <time name="total">   73.77   74.28</time>
   <energy>
    <i name="e_fr_energy">   -301.80139166 </i>
    <i name="e_wo_entrp">   -301.80139166 </i>
    <i name="e_0_energy">   -301.80139166 </i>
   </energy>
  </scstep>
  <scstep>
   <time name="dav">   78.26   78.40</time>
   <time name="total">   78.33   78.47</time>
   <energy>
    <i name="alphaZ">   1092.93123245 </i>
    <i name="ewald"> -31336.06378027 </i>
    <i name="hartreedc"> -12785.06387296 </i>
    <i name="XCdc">   1492.88358620 </i>
    <i name="pawpsdc">  44037.41866414 </i>
    <i name="pawaedc"> -43597.78370655 </i>
    <i name="eentropy">      0.00000000 </i>
    <i name="bandstr">  -4379.70002450 </i>
    <i name="atom">  45173.57650906 </i>
    <i name="e_fr_energy">   -301.80139241 </i>
    <i name="e_wo_entrp">   -301.80139241 </i>
    <i name="e_0_energy">   -301.80139241 </i>
   </energy>
  </scstep>
  <structure>
   <crystal>
    <varray name="basis" >
     <v>      11.16283135      -0.00415787       0.00008724 </v>
     <v>      -0.00353517       9.50872944       0.00191854 </v>
     <v>       0.00009059       0.00224827      11.14093958 </v>
    </varray>
    <i name="volume">   1182.54750035 </i>
    <varray name="rec_basis" >
     <v>       0.08958302       0.00003331      -0.00000074 </v>
     <v>       0.00003917       0.10516654      -0.00002122 </v>
     <v>      -0.00000071      -0.00001811       0.08975904 </v>
    </varray>
   </crystal>
   <varray name="positions" >
    <v>       0.12607207       0.00028953       0.19671359 </v>
    <v>       0.37441022       0.00128880       0.19341146 </v>
    <v>       0.62117249       0.99988356       0.43654853 </v>
    <v>       0.87836798      -0.00040843       0.43612729 </v>
    <v>       0.62326999       0.99935273       0.18888581 </v>
    <v>       0.87495594      -0.00101345       0.18932874 </v>
    <v>       0.37983030      -0.00039455       0.93758190 </v>
    <v>       0.37798270      -0.00100259       0.68059198 </v>
    <v>       0.62509888       0.99986077       0.93721719 </v>
    <v>       0.87084557       0.00076783       0.93757135 </v>
    <v>       0.62328024       0.00037870       0.68505742 </v>
    <v>       0.87138021       0.00137342       0.68474767 </v>
    <v>       0.12544123       0.99996582       0.94295792 </v>
    <v>       0.12586104       0.99959841       0.67231034 </v>
    <v>      -0.00077225       0.30197759       0.06640936 </v>
    <v>       0.25206058       0.69773854       0.06668227 </v>
    <v>       0.25104731       0.29165798       0.31603368 </v>
    <v>       0.49873060       0.70672686       0.31474645 </v>
    <v>       0.50042725       0.29648300       0.06525825 </v>
    <v>       0.74867550       0.70377380       0.06502735 </v>
    <v>       0.74864392       0.29691061       0.31359259 </v>
    <v>       0.00119569       0.70700516       0.31461242 </v>
    <v>       0.00043502       0.29677438       0.55864123 </v>
    <v>       0.25215367       0.70779968       0.55734483 </v>
    <v>       0.25279156       0.30832495       0.81119503 </v>
    <v>       0.50062261       0.70350309       0.81149699 </v>
    <v>       0.49917711       0.29311609       0.55968448 </v>
    <v>       0.74854326       0.70332372       0.56084234 </v>
    <v>       0.74821960       0.29622735       0.81165842 </v>
    <v>       0.99807873       0.69203565       0.81145837 </v>
    <v>       0.24843517       0.32830733       0.05899842 </v>
    <v>       0.00104853       0.67210053       0.05981335 </v>
    <v>       0.50175081       0.32914015       0.31132580 </v>
    <v>       0.24941460       0.67167305       0.31040029 </v>
    <v>       0.75124964       0.32839977       0.06184718 </v>
    <v>       0.49936416       0.67119911       0.06115522 </v>
    <v>       0.99830890       0.32857912       0.31138658 </v>
    <v>       0.75048182       0.67045465       0.31230430 </v>
    <v>       0.24826323       0.32757264       0.56743961 </v>
    <v>      -0.00020085       0.67197609       0.56636322 </v>
    <v>       0.49895852       0.32859517       0.81398193 </v>
[...]
       <r>   11.4825    0.0000 </r>
       <r>   11.5739    0.0000 </r>
       <r>   11.6336    0.0000 </r>
       <r>   11.6664    0.0000 </r>
      </set>
     </set>
    </set>
   </array>
  </eigenvalues>
  <separator name="orbital magnetization" >
   <v name="MAGDIPOLOUT">      0.00000000      0.00000000      0.00000000</v>
  </separator>
  <dos>
   <i name="efermi">      4.38728996 </i>
   <total>
    <array>
     <dimension dim="1">gridpoints</dimension>
     <dimension dim="2">spin</dimension>
     <field>energy</field>
     <field>total</field>
     <field>integrated</field>
     <set>
      <set comment="spin 1">
       <r>   -42.4549     0.0000     0.0000 </r>
       <r>   -42.2639     0.0000     0.0000 </r>
       <r>   -42.0729     0.0000     0.0000 </r>
       <r>   -41.8819     0.0000     0.0000 </r>
       <r>   -41.6909     0.0000     0.0000 </r>
       <r>   -41.4999     0.0000     0.0000 </r>
       <r>   -41.3089     0.0000     0.0000 </r>
       <r>   -41.1179     0.0000     0.0000 </r>
       <r>   -40.9269     0.0000     0.0000 </r>
       <r>   -40.7359     0.0000     0.0000 </r>
       <r>   -40.5449     0.0000     0.0000 </r>
       <r>   -40.3539     0.0000     0.0000 </r>
       <r>   -40.1629     0.0000     0.0000 </r>
       <r>   -39.9719     0.0000     0.0000 </r>
       <r>   -39.7809     0.0000     2.0000 </r>
       <r>   -39.5899     0.0000     6.0000 </r>
       <r>   -39.3989     0.0000    18.0000 </r>
       <r>   -39.2079     0.0000    22.0000 </r>
       <r>   -39.0169     0.0000    24.0000 </r>
       <r>   -38.8259     0.0000    24.0000 </r>
       <r>   -38.6349     0.0000    24.0000 </r>
       <r>   -38.4439     0.0000    24.0000 </r>
       <r>   -38.2529     0.0000    24.0000 </r>
       <r>   -38.0619     0.0000    24.0000 </r>
       <r>   -37.8709     0.0000    24.0000 </r>
       <r>   -37.6799     0.0000    24.0000 </r>
       <r>   -37.4889     0.0000    24.0000 </r>
       <r>   -37.2979     0.0000    24.0000 </r>
       <r>   -37.1069     0.0000    24.0000 </r>
       <r>   -36.9160     0.0000    24.0000 </r>
       <r>   -36.7250     0.0000    24.0000 </r>
       <r>   -36.5340     0.0000    24.0000 </r>
       <r>   -36.3430     0.0000    24.0000 </r>
       <r>   -36.1520     0.0000    24.0000 </r>
       <r>   -35.9610     0.0000    24.0000 </r>
       <r>   -35.7700     0.0000    24.0000 </r>
       <r>   -35.5790     0.0000    24.0000 </r>
       <r>   -35.3880     0.0000    24.0000 </r>
       <r>   -35.1970     0.0000    24.0000 </r>
       <r>   -35.0060     0.0000    24.0000 </r>
       <r>   -34.8150     0.0000    24.0000 </r>
       <r>   -34.6240     0.0000    24.0000 </r>
       <r>   -34.4330     0.0000    24.0000 </r>
       <r>   -34.2420     0.0000    24.0000 </r>
       <r>   -34.0510     0.0000    24.0000 </r>
       <r>   -33.8600     0.0000    24.0000 </r>
       <r>   -33.6690     0.0000    24.0000 </r>
       <r>   -33.4780     0.0000    24.0000 </r>
       <r>   -33.2870     0.0000    24.0000 </r>
       <r>   -33.0960     0.0000    24.0000 </r>
       <r>   -32.9050     0.0000    24.0000 </r>
       <r>   -32.7140     0.0000    24.0000 </r>
       <r>   -32.5230     0.0000    24.0000 </r>
       <r>   -32.3320     0.0000    24.0000 </r>
       <r>   -32.1410     0.0000    24.0000 </r>
       <r>   -31.9500     0.0000    24.0000 </r>
       <r>   -31.7590     0.0000    24.0000 </r>
       <r>   -31.5680     0.0000    24.0000 </r>
       <r>   -31.3770     0.0000    24.0000 </r>
       <r>   -31.1860     0.0000    24.0000 </r>
       <r>   -30.9950     0.0000    24.0000 </r>
       <r>   -30.8040     0.0000    24.0000 </r>
       <r>   -30.6130     0.0000    24.0000 </r>
       <r>   -30.4220     0.0000    24.0000 </r>
       <r>   -30.2310     0.0000    24.0000 </r>
       <r>   -30.0400     0.0000    24.0000 </r>
       <r>   -29.8490     0.0000    24.0000 </r>
       <r>   -29.6580     0.0000    24.0000 </r>
       <r>   -29.4670     0.0000    24.0000 </r>
       <r>   -29.2760     0.0000    24.0000 </r>
       <r>   -29.0850     0.0000    24.0000 </r>
       <r>   -28.8940     0.0000    24.0000 </r>
       <r>   -28.7031     0.0000    24.0000 </r>
       <r>   -28.5121     0.0000    24.0000 </r>
       <r>   -28.3211     0.0000    24.0000 </r>
       <r>   -28.1301     0.0000    24.0000 </r>
       <r>   -27.9391     0.0000    24.0000 </r>
       <r>   -27.7481     0.0000    24.0000 </r>
       <r>   -27.5571     0.0000    24.0000 </r>
       <r>   -27.3661     0.0000    24.0000 </r>
       <r>   -27.1751     0.0000    24.0000 </r>
       <r>   -26.9841     0.0000    24.0000 </r>
       <r>   -26.7931     0.0000    24.0000 </r>
       <r>   -26.6021     0.0000    24.0000 </r>
       <r>   -26.4111     0.0000    24.0000 </r>
       <r>   -26.2201     0.0000    24.0000 </r>
       <r>   -26.0291     0.0000    24.0000 </r>
       <r>   -25.8381     0.0000    24.0000 </r>
       <r>   -25.6471     0.0000    24.0000 </r>
       <r>   -25.4561     0.0000    24.0000 </r>
       <r>   -25.2651     0.0000    24.0000 </r>
       <r>   -25.0741     0.0000    24.0000 </r>
       <r>   -24.8831     0.0000    24.0000 </r>
       <r>   -24.6921     0.0000    24.0000 </r>
       <r>   -24.5011     0.0000    24.0000 </r>
       <r>   -24.3101     0.0000    24.0000 </r>
       <r>   -24.1191     0.0000    24.0000 </r>
       <r>   -23.9281     0.0000    24.0000 </r>
       <r>   -23.7371     0.0000    24.0000 </r>
       <r>   -23.5461     0.0000    24.0000 </r>
       <r>   -23.3551     0.0000    24.0000 </r>
       <r>   -23.1641     0.0000    24.0000 </r>
       <r>   -22.9731     0.0000    24.0000 </r>
       <r>   -22.7821     0.0000    24.0000 </r>
       <r>   -22.5911     0.0000    24.0000 </r>
       <r>   -22.4001     0.0000    24.0000 </r>
       <r>   -22.2091     0.0000    24.0000 </r>
       <r>   -22.0181     0.0000    24.0000 </r>
       <r>   -21.8271     0.0000    24.0000 </r>
       <r>   -21.6361     0.0000    24.0000 </r>
       <r>   -21.4451     0.0000    24.0000 </r>
       <r>   -21.2541     0.0000    24.0000 </r>
       <r>   -21.0631     0.0000    24.0000 </r>
       <r>   -20.8721     0.0000    24.0000 </r>
       <r>   -20.6812     0.0000    24.0000 </r>
       <r>   -20.4902     0.0000    24.0000 </r>
       <r>   -20.2992     0.0000    24.0000 </r>
       <r>   -20.1082     0.0000    24.0000 </r>
       <r>   -19.9172     0.0000    24.0000 </r>
       <r>   -19.7262     0.0000    24.0000 </r>
       <r>   -19.5352     0.0000    24.0000 </r>
       <r>   -19.3442     0.0000    24.0000 </r>
       <r>   -19.1532     0.0000    24.0000 </r>
       <r>   -18.9622     0.0000    24.0000 </r>
       <r>   -18.7712     0.0000    24.0000 </r>
       <r>   -18.5802     0.0000    46.0000 </r>
       <r>   -18.3892     0.0000   138.0000 </r>
       <r>   -18.1982     0.0000   184.0000 </r>
       <r>   -18.0072     0.0000   184.0000 </r>
       <r>   -17.8162     0.0000   184.0000 </r>
       <r>   -17.6252     0.0000   184.0000 </r>
       <r>   -17.4342     0.0000   184.0000 </r>
       <r>   -17.2432     0.0000   184.0000 </r>
       <r>   -17.0522     0.0000   184.0000 </r>
       <r>   -16.8612     0.0000   184.0000 </r>
       <r>   -16.6702     0.0000   184.0000 </r>
       <r>   -16.4792     0.0000   184.0000 </r>
       <r>   -16.2882     0.0000   184.0000 </r>
       <r>   -16.0972     0.0000   184.0000 </r>
       <r>   -15.9062     0.0000   184.0000 </r>
       <r>   -15.7152     0.0000   184.0000 </r>
       <r>   -15.5242     0.0000   184.0000 </r>
       <r>   -15.3332     0.0000   184.0000 </r>
       <r>   -15.1422     0.0000   184.0000 </r>
       <r>   -14.9512     0.0000   184.0000 </r>
       <r>   -14.7602     0.0000   184.0000 </r>
       <r>   -14.5692     0.0000   184.0000 </r>
       <r>   -14.3782     0.0000   184.0000 </r>
       <r>   -14.1872     0.0000   184.0000 </r>
       <r>   -13.9962     0.0000   184.0000 </r>
       <r>   -13.8052     0.0000   184.0000 </r>
       <r>   -13.6142     0.0000   184.0000 </r>
       <r>   -13.4232     0.0000   184.0000 </r>
       <r>   -13.2322     0.0000   184.0000 </r>
       <r>   -13.0412     0.0000   186.0000 </r>
       <r>   -12.8502     0.0000   186.0000 </r>
       <r>   -12.6592     0.0000   194.0000 </r>
       <r>   -12.4683     0.0000   206.0000 </r>
       <r>   -12.2773     0.0000   216.0000 </r>
       <r>   -12.0863     0.0000   216.0000 </r>
       <r>   -11.8953     0.0000   216.0000 </r>
       <r>   -11.7043     0.0000   216.0000 </r>
       <r>   -11.5133     0.0000   216.0000 </r>
       <r>   -11.3223     0.0000   216.0000 </r>
       <r>   -11.1313     0.0000   216.0000 </r>
       <r>   -10.9403     0.0000   216.0000 </r>
       <r>   -10.7493     0.0000   216.0000 </r>
       <r>   -10.5583     0.0000   216.0000 </r>
       <r>   -10.3673     0.0000   216.0000 </r>
       <r>   -10.1763     0.0000   216.0000 </r>
       <r>    -9.9853     0.0000   216.0000 </r>
       <r>    -9.7943     0.0000   216.0000 </r>
       <r>    -9.6033     0.0000   216.0000 </r>
       <r>    -9.4123     0.0000   216.0000 </r>
       <r>    -9.2213     7.2502   216.2831 </r>
       <r>    -9.0303     1.7331   217.9849 </r>
       <r>    -8.8393     6.1889   219.9229 </r>
       <r>    -8.6483    18.8020   221.4579 </r>
       <r>    -8.4573     3.7496   224.0100 </r>
       <r>    -8.2663    21.9863   229.4564 </r>
       <r>    -8.0753     0.0350   232.0000 </r>
       <r>    -7.8843    34.4318   236.8787 </r>
       <r>    -7.6933    28.1419   242.2521 </r>
       <r>    -7.5023    19.8512   245.1053 </r>
       <r>    -7.3113     0.5252   247.9984 </r>
       <r>    -7.1203     0.0000   248.0000 </r>
       <r>    -6.9293     0.0000   248.0000 </r>
       <r>    -6.7383     0.0000   248.0000 </r>
       <r>    -6.5473     0.0000   248.0000 </r>
       <r>    -6.3563     0.0000   248.0000 </r>
       <r>    -6.1653     4.4169   248.1172 </r>
       <r>    -5.9743    28.3442   251.1993 </r>
       <r>    -5.7833     4.6888   256.0655 </r>
       <r>    -5.5923    30.3343   259.5620 </r>
       <r>    -5.4013    25.8988   265.0024 </r>
       <r>    -5.2103    17.2158   269.2342 </r>
       <r>    -5.0193     6.4773   271.6689 </r>
       <r>    -4.8283     5.6202   272.3188 </r>
       <r>    -4.6373    12.2086   274.1769 </r>
       <r>    -4.4464     6.5573   276.1882 </r>
       <r>    -4.2554     5.8599   277.0868 </r>
       <r>    -4.0644     9.7575   278.5615 </r>
       <r>    -3.8734     2.3410   279.5909 </r>
       <r>    -3.6824     1.0534   279.9149 </r>
       <r>    -3.4914     0.0059   280.0000 </r>
       <r>    -3.3004     0.0000   280.0000 </r>
       <r>    -3.1094     0.0000   280.0000 </r>
       <r>    -2.9184     0.0000   280.0000 </r>
       <r>    -2.7274     0.0000   280.0000 </r>
       <r>    -2.5364     0.0000   280.0000 </r>
       <r>    -2.3454     0.0000   280.0000 </r>
       <r>    -2.1544     0.0000   280.0000 </r>
       <r>    -1.9634     0.0000   280.0000 </r>
       <r>    -1.7724     0.0000   280.0000 </r>
       <r>    -1.5814     0.0000   280.0000 </r>
       <r>    -1.3904     0.0000   280.0000 </r>
       <r>    -1.1994     1.9314   280.0371 </r>
       <r>    -1.0084     7.5992   281.2812 </r>
       <r>    -0.8174     6.2438   282.5050 </r>
       <r>    -0.6264    13.5726   284.6194 </r>
       <r>    -0.4354     8.2224   286.6905 </r>
       <r>    -0.2444    19.7012   288.8921 </r>
       <r>    -0.0534    28.2742   294.0520 </r>
       <r>     0.1376    44.0190   300.0675 </r>
       <r>     0.3286    29.9171   307.1993 </r>
       <r>     0.5196    40.7310   315.5427 </r>
       <r>     0.7106    23.1040   321.8411 </r>
       <r>     0.9016    29.0334   327.7238 </r>
       <r>     1.0926    35.5498   335.1224 </r>
       <r>     1.2836    52.1042   343.5130 </r>
       <r>     1.4746    38.0148   352.3050 </r>
       <r>     1.6656    45.1918   360.2785 </r>
       <r>     1.8566    58.0781   369.7915 </r>
       <r>     2.0476    54.7603   380.6692 </r>
       <r>     2.2386    40.5318   389.8206 </r>
       <r>     2.4296    50.9241   398.1505 </r>
       <r>     2.6206    83.0339   410.1663 </r>
       <r>     2.8116    56.8778   424.1441 </r>
       <r>     3.0026    74.1196   436.4551 </r>
       <r>     3.1936    39.9991   448.4734 </r>
       <r>     3.3846    28.4121   455.8482 </r>
       <r>     3.5755    41.0703   461.9466 </r>
       <r>     3.7665    21.1641   467.5662 </r>
       <r>     3.9575    10.7356   470.2765 </r>
       <r>     4.1485     4.2957   471.7116 </r>
       <r>     4.3395     0.0000   472.0000 </r>
       <r>     4.5305     0.0000   472.0000 </r>
       <r>     4.7215     0.0000   472.0000 </r>
       <r>     4.9125     0.0000   472.0000 </r>
       <r>     5.1035     0.0000   472.0000 </r>
       <r>     5.2945     0.0067   472.0000 </r>
       <r>     5.4855     4.3844   472.3319 </r>
       <r>     5.6765    10.1097   473.7161 </r>
       <r>     5.8675     8.3925   475.6933 </r>
       <r>     6.0585    15.8556   480.0091 </r>
       <r>     6.2495    13.3857   482.7528 </r>
       <r>     6.4405    12.9736   485.2423 </r>
       <r>     6.6315    14.2870   487.8455 </r>
       <r>     6.8225    15.6506   490.7005 </r>
       <r>     7.0135    17.8700   493.8892 </r>
       <r>     7.2045    22.8724   497.6627 </r>
       <r>     7.3955    26.7706   502.5126 </r>
       <r>     7.5865    39.0456   508.4643 </r>
       <r>     7.7775    30.5152   515.3171 </r>
       <r>     7.9685    30.7838   521.4517 </r>
       <r>     8.1595    33.3065   527.8364 </r>
       <r>     8.3505    27.6281   533.6744 </r>
       <r>     8.5415    24.6737   538.4540 </r>
       <r>     8.7325    33.5246   543.7607 </r>
       <r>     8.9235    44.9815   551.0829 </r>
       <r>     9.1145    25.9287   558.0519 </r>
       <r>     9.3055    19.9260   562.3078 </r>
       <r>     9.4965    10.8699   565.2157 </r>
       <r>     9.6875     6.2640   567.3586 </r>
       <r>     9.8785    12.1710   568.8835 </r>
       <r>    10.0695    11.8620   571.7192 </r>
       <r>    10.2605     9.8555   573.2600 </r>
       <r>    10.4515    16.1674   575.7862 </r>
       <r>    10.6425    23.2475   579.7808 </r>
       <r>    10.8335    39.3838   585.6273 </r>
       <r>    11.0245    23.4814   592.7339 </r>
       <r>    11.2155    23.4014   597.5133 </r>
       <r>    11.4065    29.5089   602.7807 </r>
       <r>    11.5975    28.5593   608.5028 </r>
       <r>    11.7884    19.3813   613.3861 </r>
       <r>    11.9794     5.2848   615.6095 </r>
       <r>    12.1704     0.2403   615.9944 </r>
       <r>    12.3614     0.0000   616.0000 </r>
       <r>    12.5524     0.0000   616.0000 </r>
       <r>    12.7434     0.0000   616.0000 </r>
       <r>    12.9344     0.0000   616.0000 </r>
       <r>    13.1254     0.0000   616.0000 </r>
       <r>    13.3164     0.0000   616.0000 </r>
       <r>    13.5074     0.0000   616.0000 </r>
       <r>    13.6984     0.0000   616.0000 </r>
       <r>    13.8894     0.0000   616.0000 </r>
       <r>    14.0804     0.0000   616.0000 </r>
       <r>    14.2714     0.0000   616.0000 </r>
       <r>    14.4624     0.0000   616.0000 </r>
       <r>    14.6534     0.0000   616.0000 </r>
       <r>    14.8444     0.0000   616.0000 </r>
      </set>
     </set>
    </array>
   </total>
  </dos>
 </calculation>
 <structure name="finalpos" >
  <crystal>
   <varray name="basis" >
    <v>      11.18820990       0.06157311      -0.00962447 </v>
    <v>       0.05267677       9.49413726      -0.03537238 </v>
    <v>      -0.01017801      -0.04135258      11.17004998 </v>
   </varray>
   <i name="volume">   1186.45604076 </i>
   <varray name="rec_basis" >
    <v>       0.08938260      -0.00049563       0.00007961 </v>
    <v>      -0.00057935       0.10533282       0.00038942 </v>
    <v>       0.00007518       0.00033313       0.08952642 </v>
   </varray>
  </crystal>
  <varray name="positions" >
   <v>       0.13706857      -0.02234058       0.31195187 </v>
   <v>       0.39271212       0.00920214       0.20108736 </v>
   <v>       0.62421229       0.00476267       0.43090448 </v>
   <v>       0.87560681      -0.00331578       0.44195968 </v>
   <v>       0.63230765       0.00224665       0.18781153 </v>
   <v>       0.87779346      -0.00030187       0.18968350 </v>
   <v>       0.38409387      -0.00883502       0.93830935 </v>
   <v>       0.38014530       0.00045777       0.56998882 </v>
   <v>       0.62304709       0.00100189       0.93946526 </v>
   <v>       0.86185121       0.00673697       0.94151010 </v>
   <v>       0.61967873       0.00298199       0.68984936 </v>
   <v>       0.86087475       0.00390899       0.68666183 </v>
   <v>       0.11911160      -0.00476658       0.95051134 </v>
   <v>       0.12046392       0.00264411       0.68686482 </v>
   <v>      -0.00351222       0.30492183       0.06386904 </v>
   <v>       0.25313873       0.68851131       0.05983689 </v>
   <v>       0.25341143       0.30246658       0.31080357 </v>
   <v>       0.50160445       0.70663313       0.30899264 </v>
   <v>       0.49899803       0.30063977       0.06301621 </v>
   <v>       0.74921050       0.70279994       0.06148174 </v>
   <v>       0.74938474       0.30248289       0.31267684 </v>
   <v>      -0.00534754       0.69541640       0.31163368 </v>
   <v>      -0.00202722       0.30238350       0.56472510 </v>
   <v>       0.24809227       0.68743353       0.56148882 </v>
   <v>       0.24565412       0.31029167       0.81276768 </v>
   <v>       0.50311183       0.70338573       0.81277271 </v>
   <v>       0.50432165       0.30507959       0.56200127 </v>
   <v>       0.74881904       0.70109317       0.56035863 </v>
   <v>       0.74652563       0.30131234       0.81306923 </v>
   <v>       0.00142417       0.68451774       0.81166050 </v>
   <v>       0.24929390       0.34568401       0.06070890 </v>
   <v>      -0.00043692       0.66324176       0.05936484 </v>
   <v>       0.50069677       0.35163997       0.31204388 </v>
   <v>       0.24491526       0.72034027       0.30942493 </v>
   <v>       0.75094111       0.34841748       0.06099829 </v>
   <v>       0.50004938       0.64858272       0.06004957 </v>
   <v>       0.00052577       0.32883731       0.31155788 </v>
   <v>       0.74802730       0.64850761       0.31017846 </v>
   <v>       0.25179458       0.27460582       0.56481106 </v>
   <v>      -0.00064900       0.65171944       0.56072818 </v>
   <v>       0.50135755       0.33695903       0.81203044 </v>
   <v>       0.24715899       0.63886207       0.80799056 </v>
   <v>       0.75237366       0.35233009       0.56232410 </v>
   <v>       0.49778345       0.68201153       0.56067214 </v>
   <v>      -0.00026488       0.35884653       0.81171341 </v>
   <v>       0.74869253       0.65597266       0.81069017 </v>
   <v>       0.50204791       0.08160239       0.06356173 </v>
   <v>       0.25658325       0.90405688       0.02992268 </v>
   <v>       0.26376808       0.09312114       0.28625759 </v>
   <v>      -0.02246130       0.91203526       0.31506814 </v>
   <v>      -0.01220607       0.08515531       0.04532317 </v>
   <v>       0.74960325       0.92252398       0.06217720 </v>
   <v>       0.75086221       0.08392518       0.31186767 </v>
   <v>       0.52280482       0.91966714       0.29813670 </v>
   <v>       0.52696142       0.09010947       0.56103592 </v>
   <v>       0.23884894       0.90057998       0.58965143 </v>
   <v>       0.21338117       0.09155911       0.82445447 </v>
   <v>       0.01334113       0.91162641       0.81552707 </v>
   <v>       0.98551758       0.08469049       0.58890959 </v>
   <v>       0.75343555       0.91941047       0.56224181 </v>
   <v>       0.75090410       0.08077427       0.81393713 </v>
   <v>       0.51179153       0.91892174       0.82526703 </v>
  </varray>
 </structure>
</modeling>
