<?xml version="1.0" encoding="ISO-8859-1"?>
<modeling>
 <generator>
  <i name="program" type="string">vasp </i>
  <i name="version" type="string">5.4.4.18Apr17-6-g9f103f2a35  </i>
  <i name="subversion" type="string">(build Jul 31 2017 11:33:29) complex            parallel </i>
  <i name="platform" type="string">LinuxIFC </i>
  <i name="date" type="string">2021 09 23 </i>
  <i name="time" type="string">11:26:52 </i>
 </generator>
 <incar>
  <i type="string" name="SYSTEM"> La2O2S</i>
  <i type="string" name="PREC">normal</i>
  <i type="int" name="NELMIN">     4</i>
  <i type="int" name="IBRION">     2</i>
  <i type="int" name="NFREE">    10</i>
  <i name="EDIFF">      0.00000100</i>
  <i name="EDIFFG">     -0.01000000</i>
  <i type="int" name="NSW">   200</i>
  <i type="int" name="ISIF">     3</i>
  <i name="ENCUT">    600.00000000</i>
  <i name="ENAUG">    900.00000000</i>
  <i type="int" name="ISMEAR">    -5</i>
  <i type="logical" name="LWAVE"> F  </i>
  <i type="logical" name="LCHARG"> F  </i>
  <v type="int" name="KPOINT_BSE">    -1     0     0     0</v>
 </incar>
 <structure name="primitive_cell" >
  <crystal>
   <varray name="basis" >
    <v>      11.17850000       0.00000000       0.00000000 </v>
    <v>       0.00000000       9.57460000       0.00000000 </v>
    <v>       0.00000000       0.00000000      11.18240000 </v>
   </varray>
   <i name="volume">   1196.84853820 </i>
   <varray name="rec_basis" >
    <v>       0.08945744       0.00000000       0.00000000 </v>
    <v>       0.00000000       0.10444301       0.00000000 </v>
    <v>       0.00000000       0.00000000       0.08942624 </v>
   </varray>
  </crystal>
  <varray name="positions" >
   <v>       0.37539000       0.00017000       0.43687000 </v>
   <v>      -0.49987000      -0.07798000       0.31246000 </v>
   <v>       0.25013000       0.07798000       0.31246000 </v>
   <v>       0.49987000       0.07798000      -0.43754000 </v>
   <v>       0.24987000      -0.07798000      -0.43754000 </v>
   <v>      -0.37461000      -0.00016000       0.43687000 </v>
   <v>       0.37461000       0.00017000      -0.31313000 </v>
   <v>       0.37461000       0.00017000       0.18687000 </v>
   <v>       0.49987000      -0.29519000       0.31282000 </v>
   <v>       0.24987000       0.29519000       0.31282000 </v>
   <v>      -0.49987000       0.29519000      -0.43719000 </v>
   <v>       0.25013000      -0.29519000      -0.43719000 </v>
   <v>       0.49995000       0.32677000       0.31286000 </v>
   <v>       0.24995000      -0.32677000       0.31286000 </v>
   <v>      -0.49995000      -0.32677000      -0.43714000 </v>
   <v>       0.25005000       0.32677000      -0.43714000 </v>
   <v>      -0.37539000      -0.00016000      -0.31313000 </v>
   <v>      -0.37539000      -0.00016000       0.18687000 </v>
   <v>       0.12461000      -0.00016000      -0.31313000 </v>
   <v>       0.49987000       0.07798000       0.06246000 </v>
   <v>      -0.24987000       0.07798000       0.31246000 </v>
   <v>      -0.25013000      -0.07798000      -0.43754000 </v>
   <v>       0.24987000      -0.07798000       0.06246000 </v>
   <v>       0.00013000      -0.07798000       0.31246000 </v>
   <v>      -0.49987000      -0.07798000      -0.18754000 </v>
   <v>      -0.00013000       0.07798000      -0.43754000 </v>
   <v>       0.25013000       0.07798000      -0.18754000 </v>
   <v>      -0.49987000       0.29519000       0.06281000 </v>
   <v>      -0.25013000       0.29519000       0.31282000 </v>
   <v>       0.25013000      -0.29519000       0.06281000 </v>
   <v>      -0.24987000      -0.29519000      -0.43719000 </v>
   <v>      -0.00013000      -0.29519000       0.31282000 </v>
   <v>       0.00013000       0.29519000      -0.43719000 </v>
   <v>       0.49987000      -0.29519000      -0.18718000 </v>
   <v>       0.24987000       0.29519000      -0.18718000 </v>
   <v>      -0.49995000      -0.32677000       0.06286000 </v>
   <v>       0.25005000       0.32677000       0.06286000 </v>
   <v>      -0.25005000      -0.32677000       0.31286000 </v>
   <v>      -0.24995000       0.32677000      -0.43714000 </v>
   <v>      -0.00005000       0.32677000       0.31286000 </v>
   <v>       0.00005000      -0.32677000      -0.43714000 </v>
   <v>       0.49995000       0.32677000      -0.18714000 </v>
   <v>       0.24995000      -0.32677000      -0.18714000 </v>
   <v>      -0.12461000       0.00017000       0.43687000 </v>
   <v>       0.37539000       0.00017000      -0.06313000 </v>
   <v>      -0.25013000      -0.07798000       0.06246000 </v>
   <v>      -0.00013000       0.07798000       0.06246000 </v>
   <v>      -0.24987000       0.07798000      -0.18754000 </v>
   <v>       0.00013000      -0.07798000      -0.18754000 </v>
   <v>      -0.12539000       0.00017000       0.18687000 </v>
   <v>       0.12539000      -0.00016000      -0.06313000 </v>
   <v>      -0.24987000      -0.29519000       0.06281000 </v>
   <v>       0.00013000       0.29519000       0.06281000 </v>
   <v>      -0.25013000       0.29519000      -0.18718000 </v>
   <v>      -0.00013000      -0.29519000      -0.18718000 </v>
   <v>      -0.24995000       0.32677000       0.06286000 </v>
   <v>       0.00005000      -0.32677000       0.06286000 </v>
   <v>      -0.25005000      -0.32677000      -0.18714000 </v>
   <v>      -0.00005000       0.32677000      -0.18714000 </v>
   <v>      -0.12461000       0.00017000      -0.06313000 </v>
  </varray>
 </structure>
 <varray name="primitive_index" >
  <v type="int" >        1 </v>
  <v type="int" >       52 </v>
  <v type="int" >       47 </v>
  <v type="int" >       53 </v>
  <v type="int" >       54 </v>
  <v type="int" >       10 </v>
  <v type="int" >        6 </v>
  <v type="int" >        9 </v>
  <v type="int" >       16 </v>
  <v type="int" >       15 </v>
  <v type="int" >       25 </v>
  <v type="int" >       22 </v>
  <v type="int" >       31 </v>
  <v type="int" >       32 </v>
  <v type="int" >       42 </v>
  <v type="int" >       37 </v>
  <v type="int" >        8 </v>
  <v type="int" >       11 </v>
  <v type="int" >       12 </v>
  <v type="int" >       45 </v>
  <v type="int" >       51 </v>
  <v type="int" >       58 </v>
  <v type="int" >       46 </v>
  <v type="int" >       48 </v>
  <v type="int" >       60 </v>
  <v type="int" >       57 </v>
  <v type="int" >       55 </v>
  <v type="int" >       17 </v>
  <v type="int" >       19 </v>
  <v type="int" >       14 </v>
  <v type="int" >       26 </v>
  <v type="int" >       20 </v>
  <v type="int" >       21 </v>
  <v type="int" >       24 </v>
  <v type="int" >       23 </v>
  <v type="int" >       34 </v>
  <v type="int" >       29 </v>
  <v type="int" >       36 </v>
  <v type="int" >       41 </v>
  <v type="int" >       35 </v>
  <v type="int" >       38 </v>
  <v type="int" >       39 </v>
  <v type="int" >       40 </v>
  <v type="int" >        2 </v>
  <v type="int" >        5 </v>
  <v type="int" >       50 </v>
  <v type="int" >       49 </v>
  <v type="int" >       59 </v>
  <v type="int" >       56 </v>
  <v type="int" >        3 </v>
  <v type="int" >        4 </v>
  <v type="int" >       18 </v>
  <v type="int" >       13 </v>
  <v type="int" >       27 </v>
  <v type="int" >       28 </v>
  <v type="int" >       33 </v>
  <v type="int" >       30 </v>
  <v type="int" >       44 </v>
  <v type="int" >       43 </v>
  <v type="int" >        7 </v>
 </varray>
 <kpoints>
  <generation param="Gamma">
   <v type="int" name="divisions">       2        2        2 </v>
   <v name="usershift">      0.00000000       0.00000000       0.00000000 </v>
   <v name="genvec1">      0.50000000       0.00000000       0.00000000 </v>
   <v name="genvec2">      0.00000000       0.50000000       0.00000000 </v>
   <v name="genvec3">      0.00000000       0.00000000       0.50000000 </v>
   <v name="shift">      0.00000000       0.00000000       0.00000000 </v>
  </generation>
  <varray name="kpointlist" >
   <v>       0.00000000       0.00000000       0.00000000 </v>
   <v>       0.50000000       0.00000000       0.00000000 </v>
   <v>       0.00000000       0.50000000       0.00000000 </v>
   <v>       0.50000000       0.50000000       0.00000000 </v>
   <v>       0.00000000       0.00000000       0.50000000 </v>
   <v>       0.50000000       0.00000000       0.50000000 </v>
   <v>       0.00000000       0.50000000       0.50000000 </v>
   <v>       0.50000000       0.50000000       0.50000000 </v>
  </varray>
  <varray name="weights" >
   <v>       0.12500000 </v>
   <v>       0.12500000 </v>
   <v>       0.12500000 </v>
   <v>       0.12500000 </v>
   <v>       0.12500000 </v>
   <v>       0.12500000 </v>
   <v>       0.12500000 </v>
   <v>       0.12500000 </v>
  </varray>
  <varray name="tetrahedronlist"  type="int" >
   <v type="int" >        2        1        2        4        5 </v>
   <v type="int" >        2        1        3        4        5 </v>
   <v type="int" >        2        3        4        5        7 </v>
   <v type="int" >        2        2        4        5        6 </v>
   <v type="int" >        2        4        5        6        8 </v>
   <v type="int" >        2        4        5        7        8 </v>
   <v type="int" >        2        1        2        3        6 </v>
   <v type="int" >        2        2        3        4        6 </v>
   <v type="int" >        2        3        4        6        8 </v>
   <v type="int" >        2        1        3        5        6 </v>
   <v type="int" >        2        3        5        6        7 </v>
   <v type="int" >        2        3        6        7        8 </v>
   <v type="int" >        2        2        3        4        7 </v>
   <v type="int" >        2        1        2        3        7 </v>
   <v type="int" >        2        1        2        5        7 </v>
   <v type="int" >        2        2        4        7        8 </v>
   <v type="int" >        2        2        6        7        8 </v>
   <v type="int" >        2        2        5        6        7 </v>
   <v type="int" >        2        1        3        4        8 </v>
   <v type="int" >        2        1        2        4        8 </v>
   <v type="int" >        2        1        2        6        8 </v>
   <v type="int" >        2        1        3        7        8 </v>
   <v type="int" >        2        1        5        7        8 </v>
   <v type="int" >        2        1        5        6        8 </v>
  </varray>
  <i name="volumeweight">      0.02083333 </i>
 </kpoints>
 <parameters>
  <separator name="general" >
   <i type="string" name="SYSTEM">La2O2S</i>
   <i type="logical" name="LCOMPAT"> F  </i>
  </separator>
  <separator name="electronic" >
   <i type="string" name="PREC">normal</i>
   <i name="ENMAX">    600.00000000</i>
   <i name="ENAUG">    900.00000000</i>
   <i name="EDIFF">      0.00000100</i>
   <i type="int" name="IALGO">    38</i>
   <i type="int" name="IWAVPR">    11</i>
   <i type="int" name="NBANDS">   280</i>
   <i name="NELECT">    464.00000000</i>
   <i type="int" name="TURBO">     0</i>
   <i type="int" name="IRESTART">     0</i>
   <i type="int" name="NREBOOT">     0</i>
   <i type="int" name="NMIN">     0</i>
   <i name="EREF">      0.00000000</i>
   <separator name="electronic smearing" >
    <i type="int" name="ISMEAR">    -5</i>
    <i name="SIGMA">      0.20000000</i>
    <i name="KSPACING">      0.50000000</i>
    <i type="logical" name="KGAMMA"> T  </i>
   </separator>
   <separator name="electronic projectors" >
    <i type="logical" name="LREAL"> F  </i>
    <v name="ROPT">      0.00000000      0.00000000      0.00000000      0.00000000      0.00000000</v>
    <i type="int" name="LMAXPAW">  -100</i>
    <i type="int" name="LMAXMIX">     2</i>
    <i type="logical" name="NLSPLINE"> F  </i>
   </separator>
   <separator name="electronic startup" >
    <i type="int" name="ISTART">     0</i>
    <i type="int" name="ICHARG">     2</i>
    <i type="int" name="INIWAV">     1</i>
   </separator>
   <separator name="electronic spin" >
    <i type="int" name="ISPIN">     1</i>
    <i type="logical" name="LNONCOLLINEAR"> F  </i>
    <v name="MAGMOM">      1.00000000      1.00000000      1.00000000      1.00000000      1.00000000      1.00000000      1.00000000      1.00000000      1.00000000      1.00000000      1.00000000      1.00000000      1.00000000      1.00000000      1.00000000      1.00000000      1.00000000      1.00000000      1.00000000      1.00000000
      1.00000000      1.00000000      1.00000000      1.00000000      1.00000000      1.00000000      1.00000000      1.00000000      1.00000000      1.00000000      1.00000000      1.00000000      1.00000000      1.00000000      1.00000000      1.00000000      1.00000000      1.00000000      1.00000000      1.00000000
      1.00000000      1.00000000      1.00000000      1.00000000      1.00000000      1.00000000      1.00000000      1.00000000      1.00000000      1.00000000      1.00000000      1.00000000      1.00000000      1.00000000      1.00000000      1.00000000      1.00000000      1.00000000      1.00000000      1.00000000
</v>
    <i name="NUPDOWN">     -1.00000000</i>
    <i type="logical" name="LSORBIT"> F  </i>
    <v name="SAXIS">      0.00000000      0.00000000      1.00000000</v>
    <i type="logical" name="LSPIRAL"> F  </i>
    <v name="QSPIRAL">      0.00000000      0.00000000      0.00000000</v>
    <i type="logical" name="LZEROZ"> F  </i>
   </separator>
   <separator name="electronic exchange-correlation" >
    <i type="logical" name="LASPH"> F  </i>
    <i type="logical" name="LMETAGGA"> F  </i>
   </separator>
   <separator name="electronic convergence" >
    <i type="int" name="NELM">    60</i>
    <i type="int" name="NELMDL">    -5</i>
    <i type="int" name="NELMIN">     4</i>
    <i name="ENINI">    600.00000000</i>
    <separator name="electronic convergence detail" >
     <i type="logical" name="LDIAG"> T  </i>
     <i type="logical" name="LSUBROT"> F  </i>
     <i name="WEIMIN">      0.00100000</i>
     <i name="EBREAK">      0.00000000</i>
     <i name="DEPER">      0.30000000</i>
     <i type="int" name="NRMM">     4</i>
     <i name="TIME">      0.40000000</i>
    </separator>
   </separator>
   <separator name="electronic mixer" >
    <i name="AMIX">      0.40000000</i>
    <i name="BMIX">      1.00000000</i>
    <i name="AMIN">      0.10000000</i>
    <i name="AMIX_MAG">      1.60000000</i>
    <i name="BMIX_MAG">      1.00000000</i>
    <separator name="electronic mixer details" >
     <i type="int" name="IMIX">     4</i>
     <i type="logical" name="MIXFIRST"> F  </i>
     <i type="int" name="MAXMIX">   -45</i>
     <i name="WC">    100.00000000</i>
     <i type="int" name="INIMIX">     1</i>
     <i type="int" name="MIXPRE">     1</i>
     <i type="int" name="MREMOVE">     5</i>
    </separator>
   </separator>
   <separator name="electronic dipolcorrection" >
    <i type="logical" name="LDIPOL"> F  </i>
    <i type="logical" name="LMONO"> F  </i>
    <i type="int" name="IDIPOL">     0</i>
    <i name="EPSILON">      1.00000000</i>
    <v name="DIPOL">   -100.00000000   -100.00000000   -100.00000000</v>
    <i name="EFIELD">      0.00000000</i>
   </separator>
  </separator>
  <separator name="grids" >
   <i type="int" name="NGX">    70</i>
   <i type="int" name="NGY">    60</i>
   <i type="int" name="NGZ">    70</i>
   <i type="int" name="NGXF">   140</i>
   <i type="int" name="NGYF">   120</i>
   <i type="int" name="NGZF">   140</i>
   <i type="logical" name="ADDGRID"> F  </i>
  </separator>
  <separator name="ionic" >
   <i type="int" name="NSW">   200</i>
   <i type="int" name="IBRION">     2</i>
   <i type="int" name="MDALGO">     0</i>
   <i type="int" name="ISIF">     3</i>
   <i name="PSTRESS">      0.00000000</i>
   <i name="EDIFFG">     -0.01000000</i>
   <i type="int" name="NFREE">    10</i>
   <i name="POTIM">      0.50000000</i>
   <i name="SMASS">     -3.00000000</i>
   <i name="SCALEE">      1.00000000</i>
  </separator>
  <separator name="ionic md" >
   <i name="TEBEG">      0.00010000</i>
   <i name="TEEND">      0.00010000</i>
   <i type="int" name="NBLOCK">     1</i>
   <i type="int" name="KBLOCK">   200</i>
   <i type="int" name="NPACO">   256</i>
   <i name="APACO">     16.00000000</i>
  </separator>
  <separator name="symmetry" >
   <i type="int" name="ISYM">     2</i>
   <i name="SYMPREC">      0.00001000</i>
  </separator>
  <separator name="dos" >
   <i type="int" name="LORBIT">     0</i>
   <v name="RWIGS">     -1.00000000     -1.00000000     -1.00000000     -1.00000000     -1.00000000</v>
   <i type="int" name="NEDOS">   301</i>
   <i name="EMIN">     10.00000000</i>
   <i name="EMAX">    -10.00000000</i>
   <i name="EFERMI">      0.00000000</i>
  </separator>
  <separator name="writing" >
   <i type="int" name="NWRITE">     2</i>
   <i type="logical" name="LWAVE"> F  </i>
   <i type="logical" name="LDOWNSAMPLE"> F  </i>
   <i type="logical" name="LCHARG"> F  </i>
   <i type="logical" name="LPARD"> F  </i>
   <i type="logical" name="LVTOT"> F  </i>
   <i type="logical" name="LVHAR"> F  </i>
   <i type="logical" name="LELF"> F  </i>
   <i type="logical" name="LOPTICS"> F  </i>
   <v name="STM">      0.00000000      0.00000000      0.00000000      0.00000000      0.00000000      0.00000000      0.00000000</v>
  </separator>
  <separator name="performance" >
   <i type="int" name="NPAR">    28</i>
   <i type="int" name="NSIM">     4</i>
   <i type="int" name="NBLK">    -1</i>
   <i type="logical" name="LPLANE"> T  </i>
   <i type="logical" name="LSCALAPACK"> T  </i>
   <i type="logical" name="LSCAAWARE"> F  </i>
   <i type="logical" name="LSCALU"> F  </i>
   <i type="logical" name="LASYNC"> F  </i>
   <i type="logical" name="LORBITALREAL"> F  </i>
  </separator>
  <separator name="miscellaneous" >
   <i type="int" name="IDIOT">     3</i>
   <i type="int" name="ISPECIAL">     0</i>
   <i type="logical" name="LMUSIC"> F  </i>
   <v name="POMASS">      7.01000000     24.30500000    208.98000000     32.06600000     16.00000000</v>
   <v name="DARWINR">      0.00000000      0.00000000      0.00000000      0.00000000      0.00000000</v>
   <v name="DARWINV">      1.00000000      1.00000000      1.00000000      1.00000000      1.00000000</v>
   <i type="logical" name="LCORR"> T  </i>
  </separator>
  <i type="logical" name="GGA_COMPAT"> T  </i>
  <i type="logical" name="LBERRY"> F  </i>
  <i type="int" name="ICORELEVEL">     0</i>
  <i type="logical" name="LDAU"> F  </i>
  <i type="int" name="I_CONSTRAINED_M">     0</i>
  <separator name="electronic exchange-correlation" >
   <i type="string" name="GGA">--</i>
   <i type="int" name="VOSKOWN">     0</i>
   <i type="logical" name="LHFCALC"> F  </i>
   <i type="string" name="PRECFOCK"></i>
   <i type="logical" name="LSYMGRAD"> F  </i>
   <i type="logical" name="LHFONE"> F  </i>
   <i type="logical" name="LRHFCALC"> F  </i>
   <i type="logical" name="LTHOMAS"> F  </i>
   <i type="logical" name="LMODELHF"> F  </i>
   <i name="ENCUT4O">     -1.00000000</i>
   <i type="int" name="EXXOEP">     0</i>
   <i type="int" name="FOURORBIT">     0</i>
   <i name="AEXX">      0.00000000</i>
   <i name="HFALPHA">      0.00000000</i>
   <i name="MCALPHA">      0.00000000</i>
   <i name="ALDAX">      1.00000000</i>
   <i name="AGGAX">      1.00000000</i>
   <i name="ALDAC">      1.00000000</i>
   <i name="AGGAC">      1.00000000</i>
   <i type="int" name="NKREDX">     1</i>
   <i type="int" name="NKREDY">     1</i>
   <i type="int" name="NKREDZ">     1</i>
   <i type="logical" name="SHIFTRED"> F  </i>
   <i type="logical" name="ODDONLY"> F  </i>
   <i type="logical" name="EVENONLY"> F  </i>
   <i type="int" name="LMAXFOCK">     0</i>
   <i type="int" name="NMAXFOCKAE">     0</i>
   <i type="logical" name="LFOCKAEDFT"> F  </i>
   <i name="HFSCREEN">      0.00000000</i>
   <i name="HFSCREENC">      0.00000000</i>
   <i type="int" name="NBANDSGWLOW">     0</i>
  </separator>
  <separator name="vdW DFT" >
   <i type="logical" name="LUSE_VDW"> F  </i>
   <i name="Zab_VDW">     -0.84910000</i>
   <i name="PARAM1">      0.12340000</i>
   <i name="PARAM2">      1.00000000</i>
   <i name="PARAM3">      0.00000000</i>
  </separator>
  <separator name="model GW" >
   <i type="int" name="MODEL_GW">     0</i>
   <i name="MODEL_EPS0">     11.96848538</i>
   <i name="MODEL_ALPHA">      1.00000000</i>
  </separator>
  <separator name="linear response parameters" >
   <i type="logical" name="LEPSILON"> F  </i>
   <i type="logical" name="LRPA"> F  </i>
   <i type="logical" name="LNABLA"> F  </i>
   <i type="logical" name="LVEL"> F  </i>
   <i type="int" name="KINTER">     0</i>
   <i name="CSHIFT">      0.10000000</i>
   <i name="OMEGAMAX">     -1.00000000</i>
   <i name="DEG_THRESHOLD">      0.00200000</i>
   <i name="RTIME">     -0.10000000</i>
   <i name="WPLASMAI">      0.00000000</i>
   <v name="DFIELD">      0.00000000      0.00000000      0.00000000</v>
   <v name="WPLASMA">      0.00000000      0.00000000      0.00000000      0.00000000      0.00000000      0.00000000      0.00000000      0.00000000      0.00000000</v>
  </separator>
  <separator name="orbital magnetization" >
   <i type="logical" name="NUCIND"> F  </i>
   <v name="MAGPOS">      0.00000000      0.00000000      0.00000000</v>
   <i type="logical" name="LNICSALL"> T  </i>
   <i type="logical" name="ORBITALMAG"> F  </i>
   <i type="logical" name="LMAGBLOCH"> F  </i>
   <i type="logical" name="LCHIMAG"> F  </i>
   <i type="logical" name="LGAUGE"> T  </i>
   <i type="int" name="MAGATOM">     0</i>
   <v name="MAGDIPOL">      0.00000000      0.00000000      0.00000000</v>
   <v name="AVECCONST">      0.00000000      0.00000000      0.00000000</v>
  </separator>
  <separator name="response functions" >
   <i type="logical" name="LADDER"> F  </i>
   <i type="logical" name="LRPAFORCE"> F  </i>
   <i type="logical" name="LFXC"> F  </i>
   <i type="logical" name="LHARTREE"> T  </i>
   <i type="int" name="IBSE">     0</i>
   <v type="int" name="KPOINT">    -1     0     0     0</v>
   <i type="logical" name="LTCTE"> F  </i>
   <i type="logical" name="LTETE"> F  </i>
   <i type="logical" name="LTRIPLET"> F  </i>
   <i type="logical" name="LFXCEPS"> F  </i>
   <i type="logical" name="LFXHEG"> F  </i>
   <i type="int" name="NATURALO">     2</i>
   <i type="logical" name="L2ORDER"> F  </i>
   <i type="logical" name="LMP2LT"> F  </i>
   <i type="logical" name="LUSEW"> F  </i>
   <i name="ENCUTGW">     -2.00000000</i>
   <i name="ENCUTGWSOFT">     -2.00000000</i>
   <i name="ENCUTLF">     -1.00000000</i>
   <i type="int" name="LMAXMP2">    -1</i>
   <i name="SCISSOR">      0.00000000</i>
   <i type="int" name="NOMEGA">     0</i>
   <i type="int" name="NOMEGAR">     0</i>
   <i type="int" name="NBANDSGW">    -1</i>
   <i type="int" name="NBANDSO">    -1</i>
   <i type="int" name="NBANDSV">    -1</i>
   <i type="int" name="NELM">     1</i>
   <i type="int" name="NELMHF">     1</i>
   <i type="int" name="DIM">     3</i>
   <i type="int" name="ANTIRES">     0</i>
   <i name="OMEGAMAX">    -30.00000000</i>
   <i name="OMEGAMIN">    -30.00000000</i>
   <i name="OMEGATL">   -200.00000000</i>
   <i type="int" name="OMEGAGRID">   140</i>
   <i name="CSHIFT">     -0.10000000</i>
   <i type="logical" name="SELFENERGY"> F  </i>
   <i type="logical" name="LSPECTRAL"> F  </i>
   <i type="logical" name="LSPECTRALGW"> F  </i>
   <i type="logical" name="LSINGLES"> F  </i>
   <i type="logical" name="LFERMIGW"> F  </i>
   <i type="logical" name="ODDONLYGW"> F  </i>
   <i type="logical" name="EVENONLYGW"> F  </i>
   <i type="int" name="NKREDLFX">     1</i>
   <i type="int" name="NKREDLFY">     1</i>
   <i type="int" name="NKREDLFZ">     1</i>
   <i type="int" name="MAXMEM">  2800</i>
   <i type="int" name="TELESCOPE">     0</i>
   <i type="int" name="TAUPAR">     1</i>
   <i type="int" name="OMEGAPAR">    -1</i>
   <i name="LAMBDA">      1.00000000</i>
  </separator>
  <separator name="External order field" >
   <i name="OFIELD_KAPPA">      0.00000000</i>
   <v name="OFIELD_K">      0.00000000      0.00000000      0.00000000</v>
   <i name="OFIELD_Q6_NEAR">      0.00000000</i>
   <i name="OFIELD_Q6_FAR">      0.00000000</i>
   <i name="OFIELD_A">      0.00000000</i>
  </separator>
 </parameters>
 <atominfo>
  <atoms>      60 </atoms>
  <types>       5 </types>
  <array name="atoms" >
   <dimension dim="1">ion</dimension>
   <field type="string">element</field>
   <field type="int">atomtype</field>
   <set>
    <rc><c>Li</c><c>   1</c></rc>
    <rc><c>Li</c><c>   1</c></rc>
    <rc><c>Li</c><c>   1</c></rc>
    <rc><c>Li</c><c>   1</c></rc>
    <rc><c>Li</c><c>   1</c></rc>
    <rc><c>Li</c><c>   1</c></rc>
    <rc><c>Li</c><c>   1</c></rc>
    <rc><c>Li</c><c>   1</c></rc>
    <rc><c>Mg</c><c>   2</c></rc>
    <rc><c>Mg</c><c>   2</c></rc>
    <rc><c>Mg</c><c>   2</c></rc>
    <rc><c>Mg</c><c>   2</c></rc>
    <rc><c>Bi</c><c>   3</c></rc>
    <rc><c>Bi</c><c>   3</c></rc>
    <rc><c>Bi</c><c>   3</c></rc>
    <rc><c>Bi</c><c>   3</c></rc>
    <rc><c>Bi</c><c>   3</c></rc>
    <rc><c>Bi</c><c>   3</c></rc>
    <rc><c>Bi</c><c>   3</c></rc>
    <rc><c>Bi</c><c>   3</c></rc>
    <rc><c>Bi</c><c>   3</c></rc>
    <rc><c>Bi</c><c>   3</c></rc>
    <rc><c>Bi</c><c>   3</c></rc>
    <rc><c>Bi</c><c>   3</c></rc>
    <rc><c>Bi</c><c>   3</c></rc>
    <rc><c>Bi</c><c>   3</c></rc>
    <rc><c>Bi</c><c>   3</c></rc>
    <rc><c>Bi</c><c>   3</c></rc>
    <rc><c>S </c><c>   4</c></rc>
    <rc><c>S </c><c>   4</c></rc>
    <rc><c>S </c><c>   4</c></rc>
    <rc><c>S </c><c>   4</c></rc>
    <rc><c>S </c><c>   4</c></rc>
    <rc><c>S </c><c>   4</c></rc>
    <rc><c>S </c><c>   4</c></rc>
    <rc><c>S </c><c>   4</c></rc>
    <rc><c>S </c><c>   4</c></rc>
    <rc><c>S </c><c>   4</c></rc>
    <rc><c>S </c><c>   4</c></rc>
    <rc><c>S </c><c>   4</c></rc>
    <rc><c>S </c><c>   4</c></rc>
    <rc><c>S </c><c>   4</c></rc>
    <rc><c>S </c><c>   4</c></rc>
    <rc><c>S </c><c>   4</c></rc>
    <rc><c>O </c><c>   5</c></rc>
    <rc><c>O </c><c>   5</c></rc>
    <rc><c>O </c><c>   5</c></rc>
    <rc><c>O </c><c>   5</c></rc>
    <rc><c>O </c><c>   5</c></rc>
    <rc><c>O </c><c>   5</c></rc>
    <rc><c>O </c><c>   5</c></rc>
    <rc><c>O </c><c>   5</c></rc>
    <rc><c>O </c><c>   5</c></rc>
    <rc><c>O </c><c>   5</c></rc>
    <rc><c>O </c><c>   5</c></rc>
    <rc><c>O </c><c>   5</c></rc>
    <rc><c>O </c><c>   5</c></rc>
    <rc><c>O </c><c>   5</c></rc>
    <rc><c>O </c><c>   5</c></rc>
    <rc><c>O </c><c>   5</c></rc>
   </set>
  </array>
  <array name="atomtypes" >
   <dimension dim="1">type</dimension>
   <field type="int">atomspertype</field>
   <field type="string">element</field>
   <field>mass</field>
   <field>valence</field>
   <field type="string">pseudopotential</field>
   <set>
    <rc><c>   8</c><c>Li</c><c>      7.01000000</c><c>      3.00000000</c><c>  PAW_PBE Li_sv 10Sep2004               </c></rc>
    <rc><c>   4</c><c>Mg</c><c>     24.30500000</c><c>      2.00000000</c><c>  PAW_PBE Mg 13Apr2007                  </c></rc>
    <rc><c>  16</c><c>Bi</c><c>    208.98000000</c><c>     15.00000000</c><c>  PAW_PBE Bi_d 06Sep2000                </c></rc>
    <rc><c>  16</c><c>S </c><c>     32.06600000</c><c>      6.00000000</c><c>  PAW_PBE S 06Sep2000                   </c></rc>
    <rc><c>  16</c><c>O </c><c>     16.00000000</c><c>      6.00000000</c><c>  PAW_PBE O 08Apr2002                   </c></rc>
   </set>
  </array>
 </atominfo>
 <structure name="initialpos" >
  <crystal>
   <varray name="basis" >
    <v>      11.17850000       0.00000000       0.00000000 </v>
    <v>       0.00000000       9.57460000       0.00000000 </v>
    <v>       0.00000000       0.00000000      11.18240000 </v>
   </varray>
   <i name="volume">   1196.84853820 </i>
   <varray name="rec_basis" >
    <v>       0.08945744       0.00000000       0.00000000 </v>
    <v>       0.00000000       0.10444301       0.00000000 </v>
    <v>       0.00000000       0.00000000       0.08942624 </v>
   </varray>
  </crystal>
  <varray name="positions" >
   <v>       0.37539000       0.00017000       0.43687000 </v>
   <v>       0.87539000       0.00017000       0.43687000 </v>
   <v>       0.87461000       0.00017000       0.18687000 </v>
   <v>       0.12539000       0.99984000       0.93687000 </v>
   <v>       0.37539000       0.00017000       0.93687000 </v>
   <v>       0.37461000       0.00017000       0.68687000 </v>
   <v>       0.87539000       0.00017000       0.93687000 </v>
   <v>       0.62461000       0.99984000       0.68687000 </v>
   <v>       0.37461000       0.00017000       0.18687000 </v>
   <v>       0.62539000       0.99984000       0.43687000 </v>
   <v>       0.62461000       0.99984000       0.18687000 </v>
   <v>       0.12461000       0.99984000       0.68687000 </v>
   <v>       0.00013000       0.29519000       0.06281000 </v>
   <v>       0.25013000       0.70481000       0.06281000 </v>
   <v>       0.24987000       0.29519000       0.31282000 </v>
   <v>       0.49987000       0.70481000       0.31282000 </v>
   <v>       0.50013000       0.29519000       0.06281000 </v>
   <v>       0.75013000       0.70481000       0.06281000 </v>
   <v>       0.74987000       0.29519000       0.31282000 </v>
   <v>       0.99987000       0.70481000       0.31282000 </v>
   <v>       0.00013000       0.29519000       0.56281000 </v>
   <v>       0.25013000       0.70481000       0.56281000 </v>
   <v>       0.24987000       0.29519000       0.81282000 </v>
   <v>       0.49987000       0.70481000       0.81282000 </v>
   <v>       0.50013000       0.29519000       0.56281000 </v>
   <v>       0.75013000       0.70481000       0.56281000 </v>
   <v>       0.74987000       0.29519000       0.81282000 </v>
   <v>       0.99987000       0.70481000       0.81282000 </v>
   <v>       0.25005000       0.32677000       0.06286000 </v>
   <v>       0.00005000       0.67323000       0.06286000 </v>
   <v>       0.49995000       0.32677000       0.31286000 </v>
   <v>       0.24995000       0.67323000       0.31286000 </v>
   <v>       0.75005000       0.32677000       0.06286000 </v>
   <v>       0.50005000       0.67323000       0.06286000 </v>
   <v>       0.99995000       0.32677000       0.31286000 </v>
   <v>       0.74995000       0.67323000       0.31286000 </v>
   <v>       0.25005000       0.32677000       0.56286000 </v>
   <v>       0.00005000       0.67323000       0.56286000 </v>
   <v>       0.49995000       0.32677000       0.81286000 </v>
   <v>       0.24995000       0.67323000       0.81286000 </v>
   <v>       0.75005000       0.32677000       0.56286000 </v>
   <v>       0.50005000       0.67323000       0.56286000 </v>
   <v>       0.99995000       0.32677000       0.81286000 </v>
   <v>       0.74995000       0.67323000       0.81286000 </v>
   <v>       0.49987000       0.07798000       0.06246000 </v>
   <v>       0.24987000       0.92202000       0.06246000 </v>
   <v>       0.25013000       0.07798000       0.31246000 </v>
   <v>       0.00013000       0.92202000       0.31246000 </v>
   <v>       0.99987000       0.07798000       0.06246000 </v>
   <v>       0.74987000       0.92202000       0.06246000 </v>
   <v>       0.75013000       0.07798000       0.31246000 </v>
   <v>       0.50013000       0.92202000       0.31246000 </v>
   <v>       0.49987000       0.07798000       0.56246000 </v>
   <v>       0.24987000       0.92202000       0.56246000 </v>
   <v>       0.25013000       0.07798000       0.81246000 </v>
   <v>       0.00013000       0.92202000       0.81246000 </v>
   <v>       0.99987000       0.07798000       0.56246000 </v>
   <v>       0.74987000       0.92202000       0.56246000 </v>
   <v>       0.75013000       0.07798000       0.81246000 </v>
   <v>       0.50013000       0.92202000       0.81246000 </v>
  </varray>
 </structure>
 <calculation>
  <scstep>
   <time name="dav">   59.53   60.08</time>
   <time name="total">   59.61   60.17</time>
   <energy>
    <i name="alphaZ">   1067.11773629 </i>
    <i name="ewald"> -30656.91261480 </i>
    <i name="hartreedc"> -12696.31548158 </i>
    <i name="XCdc">   1321.16025913 </i>
    <i name="pawpsdc">  36729.48549953 </i>
    <i name="pawaedc"> -36149.63912807 </i>
    <i name="eentropy">      0.00000000 </i>
    <i name="bandstr">   1842.21181141 </i>
    <i name="atom">  44408.54722957 </i>
    <i name="e_fr_energy">   5865.65531148 </i>
    <i name="e_wo_entrp">   5865.65531148 </i>
    <i name="e_0_energy">   5865.65531148 </i>
   </energy>
  </scstep>
  <scstep>
   <time name="dav">   60.25   60.46</time>
   <time name="total">   60.26   60.47</time>
   <energy>
    <i name="e_fr_energy">    779.95682181 </i>
    <i name="e_wo_entrp">    779.95682181 </i>
    <i name="e_0_energy">    779.95682181 </i>
   </energy>
  </scstep>
  <scstep>
   <time name="dav">   69.32   69.49</time>
   <time name="total">   69.32   69.50</time>
   <energy>
    <i name="e_fr_energy">   -241.98060066 </i>
    <i name="e_wo_entrp">   -241.98060066 </i>
    <i name="e_0_energy">   -241.98060066 </i>
   </energy>
  </scstep>
  <scstep>
   <time name="dav">   70.49   70.68</time>
   <time name="total">   70.49   70.68</time>
   <energy>
    <i name="e_fr_energy">   -339.44290867 </i>
    <i name="e_wo_entrp">   -339.44290867 </i>
    <i name="e_0_energy">   -339.44290867 </i>
   </energy>
  </scstep>
  <scstep>
   <time name="dav">   95.73   95.96</time>
   <time name="total">   96.46   96.69</time>
   <energy>
    <i name="e_fr_energy">   -347.77571967 </i>
    <i name="e_wo_entrp">   -347.77571967 </i>
    <i name="e_0_energy">   -347.77571967 </i>
   </energy>
  </scstep>
  <scstep>
   <time name="dav">   84.64   84.82</time>
   <time name="total">   85.44   85.76</time>
   <energy>
    <i name="e_fr_energy">   -290.31323954 </i>
    <i name="e_wo_entrp">   -290.31323954 </i>
    <i name="e_0_energy">   -290.31323954 </i>
   </energy>
  </scstep>
  <scstep>
   <time name="dav">   64.44   64.57</time>
   <time name="total">   65.25   65.39</time>
   <energy>
    <i name="e_fr_energy">   -292.54828088 </i>
    <i name="e_wo_entrp">   -292.54828088 </i>
    <i name="e_0_energy">   -292.54828088 </i>
   </energy>
  </scstep>
  <scstep>
   <time name="dav">   74.88   75.05</time>
   <time name="total">   75.67   75.89</time>
   <energy>
    <i name="e_fr_energy">   -291.32816774 </i>
    <i name="e_wo_entrp">   -291.32816774 </i>
    <i name="e_0_energy">   -291.32816774 </i>
   </energy>
  </scstep>
  <scstep>
   <time name="dav">   70.83   70.97</time>
   <time name="total">   71.63   71.78</time>
   <energy>
    <i name="e_fr_energy">   -290.72462756 </i>
    <i name="e_wo_entrp">   -290.72462756 </i>
    <i name="e_0_energy">   -290.72462756 </i>
   </energy>
  </scstep>
  <scstep>
   <time name="dav">   72.81   72.97</time>
   <time name="total">   73.61   73.77</time>
   <energy>
    <i name="e_fr_energy">   -290.76789260 </i>
    <i name="e_wo_entrp">   -290.76789260 </i>
    <i name="e_0_energy">   -290.76789260 </i>
   </energy>
  </scstep>
  <scstep>
   <time name="dav">   79.91   80.11</time>
   <time name="total">   80.71   80.91</time>
   <energy>
    <i name="e_fr_energy">   -290.77047946 </i>
    <i name="e_wo_entrp">   -290.77047946 </i>
    <i name="e_0_energy">   -290.77047946 </i>
   </energy>
  </scstep>
  <scstep>
   <time name="dav">   85.68   85.90</time>
   <time name="total">   86.47   86.70</time>
   <energy>
    <i name="e_fr_energy">   -290.77341231 </i>
    <i name="e_wo_entrp">   -290.77341231 </i>
    <i name="e_0_energy">   -290.77341231 </i>
   </energy>
  </scstep>
  <scstep>
   <time name="dav">   75.21   75.37</time>
   <time name="total">   76.01   76.17</time>
   <energy>
    <i name="e_fr_energy">   -290.77461432 </i>
    <i name="e_wo_entrp">   -290.77461432 </i>
    <i name="e_0_energy">   -290.77461432 </i>
   </energy>
  </scstep>
  <scstep>
   <time name="dav">   80.36   80.55</time>
   <time name="total">   81.16   81.35</time>
   <energy>
    <i name="e_fr_energy">   -290.77469690 </i>
    <i name="e_wo_entrp">   -290.77469690 </i>
    <i name="e_0_energy">   -290.77469690 </i>
   </energy>
  </scstep>
  <scstep>
   <time name="dav">   65.17   65.35</time>
   <time name="total">   65.97   66.15</time>
   <energy>
    <i name="e_fr_energy">   -290.77475201 </i>
    <i name="e_wo_entrp">   -290.77475201 </i>
    <i name="e_0_energy">   -290.77475201 </i>
   </energy>
  </scstep>
  <scstep>
   <time name="dav">   78.38   78.58</time>
   <time name="total">   79.17   79.39</time>
   <energy>
    <i name="e_fr_energy">   -290.77478992 </i>
    <i name="e_wo_entrp">   -290.77478992 </i>
    <i name="e_0_energy">   -290.77478992 </i>
   </energy>
  </scstep>
  <scstep>
   <time name="dav">   68.95   69.12</time>
   <time name="total">   69.75   69.92</time>
   <energy>
    <i name="e_fr_energy">   -290.77480497 </i>
    <i name="e_wo_entrp">   -290.77480497 </i>
    <i name="e_0_energy">   -290.77480497 </i>
   </energy>
  </scstep>
  <scstep>
   <time name="dav">   66.10   66.24</time>
   <time name="total">   66.90   67.05</time>
   <energy>
    <i name="e_fr_energy">   -290.77480598 </i>
    <i name="e_wo_entrp">   -290.77480598 </i>
    <i name="e_0_energy">   -290.77480598 </i>
   </energy>
  </scstep>
  <scstep>
   <time name="dav">   60.35   60.49</time>
   <time name="total">   61.15   61.30</time>
   <energy>
    <i name="e_fr_energy">   -290.77480721 </i>
    <i name="e_wo_entrp">   -290.77480721 </i>
    <i name="e_0_energy">   -290.77480721 </i>
   </energy>
  </scstep>
  <scstep>
   <time name="dav">   47.27   47.37</time>
   <time name="total">   47.34   47.45</time>
   <energy>
    <i name="alphaZ">   1067.11773629 </i>
    <i name="ewald"> -30656.91261480 </i>
    <i name="hartreedc"> -12925.62679952 </i>
    <i name="XCdc">   1344.90555014 </i>
    <i name="pawpsdc">  43748.94266597 </i>
    <i name="pawaedc"> -43143.53490405 </i>
    <i name="eentropy">      0.00000000 </i>
    <i name="bandstr">  -4134.21367069 </i>
    <i name="atom">  44408.54722957 </i>
    <i name="e_fr_energy">   -290.77480710 </i>
    <i name="e_wo_entrp">   -290.77480710 </i>
    <i name="e_0_energy">   -290.77480710 </i>
   </energy>
  </scstep>
  <structure>
   <crystal>
    <varray name="basis" >
     <v>      11.17850000       0.00000000       0.00000000 </v>
     <v>       0.00000000       9.57460000       0.00000000 </v>
     <v>       0.00000000       0.00000000      11.18240000 </v>
    </varray>
    <i name="volume">   1196.84853820 </i>
    <varray name="rec_basis" >
     <v>       0.08945744       0.00000000       0.00000000 </v>
     <v>       0.00000000       0.10444301       0.00000000 </v>
     <v>       0.00000000       0.00000000       0.08942624 </v>
    </varray>
   </crystal>
   <varray name="positions" >
    <v>       0.37539000       0.00017000       0.43687000 </v>
    <v>       0.87539000       0.00017000       0.43687000 </v>
    <v>       0.87461000       0.00017000       0.18687000 </v>
    <v>       0.12539000       0.99984000       0.93687000 </v>
    <v>       0.37539000       0.00017000       0.93687000 </v>
    <v>       0.37461000       0.00017000       0.68687000 </v>
    <v>       0.87539000       0.00017000       0.93687000 </v>
    <v>       0.62461000       0.99984000       0.68687000 </v>
    <v>       0.37461000       0.00017000       0.18687000 </v>
    <v>       0.62539000       0.99984000       0.43687000 </v>
    <v>       0.62461000       0.99984000       0.18687000 </v>
    <v>       0.12461000       0.99984000       0.68687000 </v>
    <v>       0.00013000       0.29519000       0.06281000 </v>
    <v>       0.25013000       0.70481000       0.06281000 </v>
    <v>       0.24987000       0.29519000       0.31282000 </v>
    <v>       0.49987000       0.70481000       0.31282000 </v>
    <v>       0.50013000       0.29519000       0.06281000 </v>
    <v>       0.75013000       0.70481000       0.06281000 </v>
    <v>       0.74987000       0.29519000       0.31282000 </v>
    <v>       0.99987000       0.70481000       0.31282000 </v>
    <v>       0.00013000       0.29519000       0.56281000 </v>
    <v>       0.25013000       0.70481000       0.56281000 </v>
    <v>       0.24987000       0.29519000       0.81282000 </v>
    <v>       0.49987000       0.70481000       0.81282000 </v>
    <v>       0.50013000       0.29519000       0.56281000 </v>
    <v>       0.75013000       0.70481000       0.56281000 </v>
    <v>       0.74987000       0.29519000       0.81282000 </v>
    <v>       0.99987000       0.70481000       0.81282000 </v>
    <v>       0.25005000       0.32677000       0.06286000 </v>
    <v>       0.00005000       0.67323000       0.06286000 </v>
    <v>       0.49995000       0.32677000       0.31286000 </v>
    <v>       0.24995000       0.67323000       0.31286000 </v>
    <v>       0.75005000       0.32677000       0.06286000 </v>
    <v>       0.50005000       0.67323000       0.06286000 </v>
    <v>       0.99995000       0.32677000       0.31286000 </v>
    <v>       0.74995000       0.67323000       0.31286000 </v>
    <v>       0.25005000       0.32677000       0.56286000 </v>
    <v>       0.00005000       0.67323000       0.56286000 </v>
    <v>       0.49995000       0.32677000       0.81286000 </v>
    <v>       0.24995000       0.67323000       0.81286000 </v>
    <v>       0.75005000       0.32677000       0.56286000 </v>
    <v>       0.50005000       0.67323000       0.56286000 </v>
    <v>       0.99995000       0.32677000       0.81286000 </v>
    <v>       0.74995000       0.67323000       0.81286000 </v>
    <v>       0.49987000       0.07798000       0.06246000 </v>
    <v>       0.24987000       0.92202000       0.06246000 </v>
    <v>       0.25013000       0.07798000       0.31246000 </v>
    <v>       0.00013000       0.92202000       0.31246000 </v>
    <v>       0.99987000       0.07798000       0.06246000 </v>
    <v>       0.74987000       0.92202000       0.06246000 </v>
    <v>       0.75013000       0.07798000       0.31246000 </v>
    <v>       0.50013000       0.92202000       0.31246000 </v>
    <v>       0.49987000       0.07798000       0.56246000 </v>
    <v>       0.24987000       0.92202000       0.56246000 </v>
    <v>       0.25013000       0.07798000       0.81246000 </v>
    <v>       0.00013000       0.92202000       0.81246000 </v>
    <v>       0.99987000       0.07798000       0.56246000 </v>
    <v>       0.74987000       0.92202000       0.56246000 </v>
    <v>       0.75013000       0.07798000       0.81246000 </v>
    <v>       0.50013000       0.92202000       0.81246000 </v>
   </varray>
  </structure>
  <varray name="forces" >
   <v>      -1.25335015       0.18534652       0.37634725 </v>
   <v>       1.22166830      -0.18785376       0.41190898 </v>
   <v>       1.13107839      -0.18433436      -0.14738188 </v>
   <v>      -0.32553661       0.00432960       0.69141868 </v>
   <v>       0.25738659      -0.19864840      -0.35897667 </v>
   <v>       0.32397144      -0.19324272       0.12797982 </v>
   <v>      -0.24504791       0.18889409      -0.36388443 </v>
   <v>       0.55908078      -0.01025883       1.01825047 </v>
   <v>      -2.30813733       0.32229561      -0.24804098 </v>
   <v>       0.51582193       0.00243030       1.53341800 </v>
   <v>       1.14846063      -0.00823313      -2.06460979 </v>
   <v>      -1.09727397       0.00290109      -0.87884508 </v>
   <v>       0.09891035      -0.99849758       0.06300157 </v>
   <v>      -0.60839100      -0.03207725      -0.00789735 </v>
   <v>      -0.80385726      -0.86497289       0.06193510 </v>
   <v>      -0.25787482      -3.05322660       0.11541973 </v>
   <v>       0.13495255       1.14486703      -0.67230456 </v>
   <v>       0.35576624      -0.06767570      -0.53180305 </v>
   <v>       0.76707664       2.16482465      -0.00903617 </v>
   <v>       0.34406320       1.88184500      -0.02808181 </v>
   <v>      -0.07757301      -1.04379222      -0.00877020 </v>
   <v>      -0.41304499      -0.00717741      -0.13217857 </v>
   <v>      -0.15778975       1.03693392       0.06252203 </v>
   <v>       0.25704150       0.92276445       0.07792194 </v>
   <v>      -0.08003135       1.13367261       0.45812565 </v>
   <v>       0.55223587      -0.11151755       0.53117749 </v>
   <v>       0.21864253      -1.94074750      -0.00645108 </v>
   <v>      -0.32126638       0.00435800      -0.04134521 </v>
   <v>       0.38758025       0.12430773      -0.05606169 </v>
   <v>      -0.02021356      -0.23564853      -0.15454223 </v>
   <v>       0.27656010      -0.10193761      -0.04123069 </v>
   <v>       0.63457730      -0.03338312      -0.05582153 </v>
   <v>      -0.38137529       0.10030603       0.51159972 </v>
   <v>       0.00387338       0.02624176       0.47336798 </v>
   <v>      -0.29445134       0.16737507      -0.01035075 </v>
   <v>      -0.64355546      -0.02826133       0.00173169 </v>
   <v>       0.30864001       0.12959081       0.14230979 </v>
   <v>       0.04570196      -0.17691654       0.18163816 </v>
   <v>      -0.29881779       0.13294735      -0.02369939 </v>
   <v>       0.00450114      -0.19997768      -0.03395107 </v>
   <v>      -0.41142157       0.08074375      -0.50446912 </v>
   <v>       0.05777793      -0.07433404      -0.41297988 </v>
   <v>       0.38178276       0.22466723      -0.02369029 </v>
   <v>      -0.05529056      -0.17598675      -0.00652132 </v>
   <v>      -0.50505337      -1.04842169       1.90995233 </v>
   <v>       1.38699324       0.02781366      -0.15533142 </v>
   <v>       2.10291339       0.47679108      -0.44803197 </v>
   <v>      -1.36863999      -1.49641513       0.00037896 </v>
   <v>      -0.59516486       0.85749276      -0.61733423 </v>
   <v>      -0.23115640       0.08439761       1.48773421 </v>
   <v>      -1.51134436      -1.71485228      -0.02325614 </v>
   <v>       0.69504175       2.37499095      -0.43860625 </v>
   <v>       0.50058978      -0.97226748      -0.92200044 </v>
   <v>       0.42930234       0.00314197       1.11002680 </v>
   <v>      -0.38266862      -0.74086687      -0.48005346 </v>
   <v>       1.29150383      -0.12460916       0.11238107 </v>
   <v>       0.49118790       1.00402264       0.51137899 </v>
   <v>      -1.35249642       0.22976277      -1.42657733 </v>
   <v>      -0.09469121       1.66943909      -0.01998133 </v>
   <v>      -0.78916865      -0.68336105      -0.61782902 </v>
  </varray>
  <varray name="stress" >
   <v>      -5.03996663       0.62475805      -0.45611337 </v>
   <v>       0.62475786     -13.16550957      -0.30163341 </v>
   <v>      -0.45611319      -0.30163357      -3.28430133 </v>
  </varray>
  <energy>
   <i name="e_fr_energy">   -304.32658934 </i>
   <i name="e_wo_entrp">   -304.32658934 </i>
   <i name="e_0_energy">      0.00000000 </i>
  </energy>
  <time name="totalsc"> 1559.95 1564.37</time>
 </calculation>
 <calculation>
  <scstep>
   <time name="dav">   62.92   63.12</time>
   <time name="total">   63.71   63.93</time>
   <energy>
    <i name="alphaZ">   1081.02209900 </i>
    <i name="ewald"> -30770.52185381 </i>
    <i name="hartreedc"> -12986.38540016 </i>
    <i name="XCdc">   1352.55433250 </i>
    <i name="pawpsdc">  43748.92449236 </i>
    <i name="pawaedc"> -43143.51961538 </i>
    <i name="eentropy">      0.00000000 </i>
    <i name="bandstr">  -3980.44447331 </i>
    <i name="atom">  44408.54722957 </i>
    <i name="e_fr_energy">   -289.82318922 </i>
    <i name="e_wo_entrp">   -289.82318922 </i>
    <i name="e_0_energy">   -289.82318922 </i>
   </energy>
  </scstep>
  <scstep>
   <time name="dav">   70.24   70.57</time>
   <time name="total">   71.04   71.38</time>
   <energy>
    <i name="e_fr_energy">   -293.35663256 </i>
    <i name="e_wo_entrp">   -293.35663256 </i>
    <i name="e_0_energy">   -293.35663256 </i>
   </energy>
  </scstep>
  <scstep>
   <time name="dav">   90.50   90.86</time>
   <time name="total">   91.30   91.67</time>
   <energy>
    <i name="e_fr_energy">   -293.15236690 </i>
    <i name="e_wo_entrp">   -293.15236690 </i>
    <i name="e_0_energy">   -293.15236690 </i>
   </energy>
  </scstep>
  <scstep>
   <time name="dav">   74.15   74.35</time>
   <time name="total">   74.96   75.17</time>
   <energy>
    <i name="e_fr_energy">   -293.00909571 </i>
    <i name="e_wo_entrp">   -293.00909571 </i>
    <i name="e_0_energy">   -293.00909571 </i>
   </energy>
  </scstep>
  <scstep>
   <time name="dav">   79.93   80.12</time>
   <time name="total">   80.73   80.93</time>
   <energy>
    <i name="e_fr_energy">   -292.99575692 </i>
    <i name="e_wo_entrp">   -292.99575692 </i>
    <i name="e_0_energy">   -292.99575692 </i>
   </energy>
  </scstep>
  <scstep>
   <time name="dav">   75.03   75.21</time>
   <time name="total">   75.84   76.01</time>
   <energy>
    <i name="e_fr_energy">   -292.99443767 </i>
    <i name="e_wo_entrp">   -292.99443767 </i>
    <i name="e_0_energy">   -292.99443767 </i>
   </energy>
  </scstep>
  <scstep>
   <time name="dav">   65.53   65.67</time>
   <time name="total">   66.33   66.48</time>
   <energy>
    <i name="e_fr_energy">   -292.99329378 </i>
    <i name="e_wo_entrp">   -292.99329378 </i>
    <i name="e_0_energy">   -292.99329378 </i>
   </energy>
  </scstep>
  <scstep>
   <time name="dav">   94.76   94.98</time>
   <time name="total">   95.56   95.79</time>
   <energy>
    <i name="e_fr_energy">   -292.99317303 </i>
    <i name="e_wo_entrp">   -292.99317303 </i>
    <i name="e_0_energy">   -292.99317303 </i>
   </energy>
  </scstep>
  <scstep>
   <time name="dav">   69.27   69.41</time>
   <time name="total">   70.07   70.22</time>
   <energy>
    <i name="e_fr_energy">   -292.99320429 </i>
    <i name="e_wo_entrp">   -292.99320429 </i>
    <i name="e_0_energy">   -292.99320429 </i>
   </energy>
  </scstep>
  <scstep>
   <time name="dav">   73.90   74.08</time>
   <time name="total">   74.71   74.89</time>
   <energy>
    <i name="e_fr_energy">   -292.99320827 </i>
    <i name="e_wo_entrp">   -292.99320827 </i>
    <i name="e_0_energy">   -292.99320827 </i>
   </energy>
  </scstep>
  <scstep>
   <time name="dav">   69.84   70.02</time>
   <time name="total">   70.64   70.83</time>
   <energy>
    <i name="e_fr_energy">   -292.99320972 </i>
    <i name="e_wo_entrp">   -292.99320972 </i>
    <i name="e_0_energy">   -292.99320972 </i>
   </energy>
  </scstep>
  <scstep>
   <time name="dav">   66.26   66.42</time>
   <time name="total">   67.06   67.23</time>
   <energy>
    <i name="e_fr_energy">   -292.99320942 </i>
    <i name="e_wo_entrp">   -292.99320942 </i>
    <i name="e_0_energy">   -292.99320942 </i>
   </energy>
  </scstep>
  <scstep>
   <time name="dav">   60.49   60.63</time>
   <time name="total">   60.56   60.70</time>
   <energy>
    <i name="alphaZ">   1081.02209900 </i>
    <i name="ewald"> -30770.52185381 </i>
    <i name="hartreedc"> -12876.48641968 </i>
    <i name="XCdc">   1347.84370171 </i>
    <i name="pawpsdc">  44104.59904258 </i>
    <i name="pawaedc"> -43502.32745841 </i>
    <i name="eentropy">      0.00000000 </i>
    <i name="bandstr">  -4085.66954985 </i>
    <i name="atom">  44408.54722957 </i>
    <i name="e_fr_energy">   -292.99320888 </i>
    <i name="e_wo_entrp">   -292.99320888 </i>
    <i name="e_0_energy">   -292.99320888 </i>
   </energy>
  </scstep>
  <structure>
   <crystal>
    <varray name="basis" >
     <v>      11.14466083       0.00419473      -0.00306242 </v>
     <v>       0.00359287       9.49888763      -0.00173464 </v>
     <v>      -0.00306349      -0.00202592      11.16034096 </v>
    </varray>
    <i name="volume">   1181.45438834 </i>
    <varray name="rec_basis" >
     <v>       0.08972908      -0.00003393       0.00002462 </v>
     <v>      -0.00003962       0.10527550       0.00001910 </v>
     <v>       0.00002462       0.00001635       0.08960301 </v>
    </varray>
   </crystal>
   <varray name="positions" >
    <v>       0.36998096       0.00110389       0.43849362 </v>
    <v>       0.88066231      -0.00077652       0.43864704 </v>
    <v>       0.87949135      -0.00075879       0.18623417 </v>
    <v>       0.12398509       0.99986182       0.93985289 </v>
    <v>       0.37650079      -0.00083091       0.93532132 </v>
    <v>       0.37600815      -0.00080367       0.68742213 </v>
    <v>       0.87433246       0.00112176       0.93530014 </v>
    <v>       0.62702280       0.99978831       0.69126289 </v>
    <v>       0.36464885       0.00179392       0.18579991 </v>
    <v>       0.62761611       0.99985225       0.44348541 </v>
    <v>       0.62956637       0.99979852       0.17796294 </v>
    <v>       0.11987453       0.99985462       0.68307852 </v>
    <v>       0.00055686       0.29015896       0.06308180 </v>
    <v>       0.24750439       0.70464838       0.06277593 </v>
    <v>       0.24640082       0.29083174       0.31308720 </v>
    <v>       0.49875710       0.68942599       0.31331794 </v>
    <v>       0.50071241       0.30095854       0.05990957 </v>
    <v>       0.75166537       0.70446901       0.06051572 </v>
    <v>       0.75318045       0.30609770       0.31278102 </v>
    <v>       0.00135486       0.71429188       0.31269885 </v>
    <v>      -0.00020478       0.28993074       0.56277216 </v>
    <v>       0.24834744       0.70477384       0.56223976 </v>
    <v>       0.24918903       0.30041470       0.81308973 </v>
    <v>       0.50097930       0.70945945       0.81315617 </v>
    <v>       0.49978461       0.30090213       0.56478643 </v>
    <v>       0.75251326       0.70424811       0.56510158 </v>
    <v>       0.75081359       0.28541133       0.81279217 </v>
    <v>       0.99848352       0.70483196       0.81264163 </v>
    <v>       0.25172267       0.32739634       0.06261814 </v>
    <v>      -0.00003723       0.67204266       0.06219328 </v>
    <v>       0.50114354       0.32625638       0.31268212 </v>
    <v>       0.25268862       0.67306180       0.31261918 </v>
    <v>       0.74840411       0.32727540       0.06506712 </v>
    <v>       0.50006672       0.67336222       0.06490218 </v>
    <v>       0.99867925       0.32761334       0.31281535 </v>
    <v>       0.74717263       0.67308760       0.31286747 </v>
    <v>       0.25138199       0.32742296       0.56347395 </v>
    <v>       0.00024723       0.67233859       0.56364362 </v>
    <v>       0.49866040       0.32743987       0.81275776 </v>
    <v>       0.24996943       0.67222239       0.81271353 </v>
    <v>       0.74827444       0.32717684       0.56068364 </v>
    <v>       0.50029935       0.67285546       0.56107834 </v>
    <v>       0.00159765       0.32790201       0.81275780 </v>
    <v>       0.74971138       0.67234327       0.81283187 </v>
    <v>       0.49769036       0.07269741       0.07069984 </v>
    <v>       0.25585580       0.92216014       0.06178988 </v>
    <v>       0.25920547       0.08038236       0.31052712 </v>
    <v>      -0.00577659       0.91448015       0.31246163 </v>
    <v>       0.99730147       0.08230057       0.05979672 </v>
    <v>       0.74887241       0.92244525       0.06887832 </v>
    <v>       0.74360754       0.06933953       0.31235967 </v>
    <v>       0.50312957       0.93398665       0.31056778 </v>
    <v>       0.50203038       0.07308113       0.55848234 </v>
    <v>       0.25172272       0.92203583       0.56724883 </v>
    <v>       0.24847853       0.07424706       0.81038897 </v>
    <v>       0.00570370       0.92139214       0.81294483 </v>
    <v>       0.00198980       0.08303888       0.56466617 </v>
    <v>       0.74403308       0.92317768       0.55630552 </v>
    <v>       0.74972134       0.08639165       0.81237380 </v>
    <v>       0.49672421       0.91857681       0.80979459 </v>
   </varray>
  </structure>
  <varray name="forces" >
   <v>      -0.58519539       0.08955612       0.15307979 </v>
   <v>       0.67762740      -0.10228116       0.21785382 </v>
   <v>       0.66287732      -0.10184215       0.05985776 </v>
   <v>      -0.08733933       0.00122147       0.38634655 </v>
   <v>       0.21743569      -0.10270654      -0.21993452 </v>
   <v>       0.18575453      -0.10332446       0.05175013 </v>
   <v>      -0.19281182       0.09311940      -0.27513824 </v>
   <v>       0.34991817      -0.01689735       0.63501827 </v>
   <v>      -0.30775241       0.04540852       0.09675800 </v>
   <v>      -0.30691858       0.12791277      -0.29062948 </v>
   <v>      -0.13227987       0.13833205      -0.21489290 </v>
   <v>      -0.32937380      -0.05425405      -0.28491290 </v>
   <v>       0.08775799       1.13072124       0.01165813 </v>
   <v>      -0.21899019      -0.30118744      -0.07159095 </v>
   <v>      -0.29887808       0.52484163       0.08193786 </v>
   <v>       0.03518642       0.03401117       0.01108058 </v>
   <v>       0.06322808      -0.20339230      -0.11700577 </v>
   <v>       0.06880574      -0.27011279      -0.11228484 </v>
   <v>       0.08931987      -0.06666770      -0.00116867 </v>
   <v>       0.23790276      -2.16690197      -0.02650511 </v>
   <v>      -0.08962255       1.39664779       0.03123658 </v>
   <v>      -0.09069246      -0.25872187      -0.01267343 </v>
   <v>      -0.12512912       0.00478606      -0.00317076 </v>
   <v>       0.04206774      -0.82730264       0.07988268 </v>
   <v>      -0.03119671      -0.07760007       0.01482151 </v>
   <v>       0.18931971      -0.07006941       0.11721223 </v>
   <v>       0.14296546       2.57331934      -0.01595287 </v>
   <v>      -0.04753772      -0.41799891      -0.02719114 </v>
   <v>       0.18655729       0.10955684       0.01679887 </v>
   <v>      -0.03442075      -0.13541740      -0.09938439 </v>
   <v>       0.07279684       0.34294774      -0.01025679 </v>
   <v>       0.27823223      -0.01998876      -0.06291756 </v>
   <v>      -0.17405017       0.11333371       0.24230432 </v>
   <v>       0.01291920      -0.14258876       0.17545529 </v>
   <v>      -0.15014115       0.05497453      -0.00443115 </v>
   <v>      -0.22820855      -0.30737656       0.00530230 </v>
   <v>       0.11615695       0.12865762       0.05650375 </v>
   <v>       0.03055144      -0.06744078       0.11632102 </v>
   <v>      -0.12912957       0.09070362      -0.02749250 </v>
   <v>      -0.02011570      -0.28025092      -0.00601007 </v>
   <v>      -0.19658225       0.11747360      -0.23679238 </v>
   <v>       0.04582222      -0.20739323      -0.13685529 </v>
   <v>       0.21740425       0.20104028      -0.02204166 </v>
   <v>      -0.01154610      -0.03876334      -0.01033913 </v>
   <v>      -0.59964334       0.58521649       0.74406301 </v>
   <v>       0.54968267       0.04273216      -0.43218368 </v>
   <v>       0.99070636      -0.46249575      -0.00196858 </v>
   <v>      -1.10834957       2.47263417       0.00914056 </v>
   <v>      -0.50863469      -1.23305268      -0.52180371 </v>
   <v>       0.59637432      -0.11048013       0.37672007 </v>
   <v>      -0.37511967       0.65654810      -0.03833739 </v>
   <v>       0.18930798      -0.71483013      -0.29771943 </v>
   <v>       0.14337303       0.43211986      -0.09945942 </v>
   <v>       0.14122876       0.16017648       0.76798435 </v>
   <v>      -0.34131348       0.26503137      -0.33895155 </v>
   <v>       0.74983998       0.24847714       0.17573028 </v>
   <v>       0.23191025      -1.26615579       0.22106834 </v>
   <v>      -0.35017412      -0.22450692      -0.34530469 </v>
   <v>      -0.03320243      -2.79925936       0.01272800 </v>
   <v>      -0.49868109       0.96976005      -0.50331310 </v>
  </varray>
  <varray name="stress" >
   <v>       7.37912069      -2.39223322      -0.60770466 </v>
   <v>      -2.39223298      13.80892767       0.44165420 </v>
   <v>      -0.60770471       0.44165382       6.10750261 </v>
  </varray>
  <energy>
   <i name="e_fr_energy">   -306.68111947 </i>
   <i name="e_wo_entrp">   -306.68111947 </i>
   <i name="e_0_energy">      0.00000000 </i>
  </energy>
  <time name="totalsc"> 1067.99 1071.11</time>
 </calculation>
 <calculation>
  <scstep>
   <time name="dav">   64.65   64.78</time>
   <time name="total">   65.45   65.59</time>
   <energy>
    <i name="alphaZ">   1079.70473151 </i>
    <i name="ewald"> -30762.76856364 </i>
    <i name="hartreedc"> -12868.24939008 </i>
    <i name="XCdc">   1347.08336735 </i>
    <i name="pawpsdc">  44104.84770199 </i>
    <i name="pawaedc"> -43502.57817745 </i>
    <i name="eentropy">      0.00000000 </i>
    <i name="bandstr">  -4099.59284435 </i>
    <i name="atom">  44408.54722957 </i>
    <i name="e_fr_energy">   -293.00594509 </i>
    <i name="e_wo_entrp">   -293.00594509 </i>
    <i name="e_0_energy">   -293.00594509 </i>
   </energy>
  </scstep>
  <scstep>
   <time name="dav">   68.33   68.57</time>
   <time name="total">   69.14   69.38</time>
   <energy>
    <i name="e_fr_energy">   -293.03850844 </i>
    <i name="e_wo_entrp">   -293.03850844 </i>
    <i name="e_0_energy">   -293.03850844 </i>
   </energy>
  </scstep>
  <scstep>
   <time name="dav">   82.21   82.47</time>
   <time name="total">   83.01   83.28</time>
   <energy>
    <i name="e_fr_energy">   -293.03672618 </i>
    <i name="e_wo_entrp">   -293.03672618 </i>
    <i name="e_0_energy">   -293.03672618 </i>
   </energy>
  </scstep>
  <scstep>
   <time name="dav">   68.08   68.29</time>
   <time name="total">   68.88   69.10</time>
   <energy>
    <i name="e_fr_energy">   -293.03514053 </i>
    <i name="e_wo_entrp">   -293.03514053 </i>
    <i name="e_0_energy">   -293.03514053 </i>
   </energy>
  </scstep>
  <scstep>
   <time name="dav">   82.73   83.02</time>
   <time name="total">   83.53   83.83</time>
   <energy>
    <i name="e_fr_energy">   -293.03500168 </i>
    <i name="e_wo_entrp">   -293.03500168 </i>
    <i name="e_0_energy">   -293.03500168 </i>
   </energy>
  </scstep>
  <scstep>
   <time name="dav">   72.90   73.15</time>
   <time name="total">   73.70   73.96</time>
   <energy>
    <i name="e_fr_energy">   -293.03498907 </i>
    <i name="e_wo_entrp">   -293.03498907 </i>
    <i name="e_0_energy">   -293.03498907 </i>
   </energy>
  </scstep>
  <scstep>
   <time name="dav">   80.52   80.76</time>
   <time name="total">   81.32   81.57</time>
   <energy>
    <i name="e_fr_energy">   -293.03497184 </i>
    <i name="e_wo_entrp">   -293.03497184 </i>
    <i name="e_0_energy">   -293.03497184 </i>
   </energy>
  </scstep>
  <scstep>
   <time name="dav">   66.00   66.28</time>
   <time name="total">   66.81   67.09</time>
   <energy>
    <i name="e_fr_energy">   -293.03496628 </i>
    <i name="e_wo_entrp">   -293.03496628 </i>
    <i name="e_0_energy">   -293.03496628 </i>
   </energy>
  </scstep>
  <scstep>
   <time name="dav">   73.19   73.38</time>
   <time name="total">   73.26   73.46</time>
   <energy>
    <i name="alphaZ">   1079.70473151 </i>
    <i name="ewald"> -30762.76856364 </i>
    <i name="hartreedc"> -12878.79831418 </i>
    <i name="XCdc">   1347.54093491 </i>
    <i name="pawpsdc">  44061.40531755 </i>
    <i name="pawaedc"> -43458.67149422 </i>
    <i name="eentropy">      0.00000000 </i>
    <i name="bandstr">  -4089.99480710 </i>
    <i name="atom">  44408.54722957 </i>
    <i name="e_fr_energy">   -293.03496559 </i>
    <i name="e_wo_entrp">   -293.03496559 </i>
    <i name="e_0_energy">   -293.03496559 </i>
   </energy>
  </scstep>
  <structure>
   <crystal>
    <varray name="basis" >
     <v>      11.14783965       0.00380068      -0.00277474 </v>
     <v>       0.00325535       9.50599999      -0.00157169 </v>
     <v>      -0.00277571      -0.00183561      11.16241317 </v>
    </varray>
    <i name="volume">   1182.89590245 </i>
    <varray name="rec_basis" >
     <v>       0.08970349      -0.00003072       0.00002230 </v>
     <v>      -0.00003586       0.10519673       0.00001729 </v>
     <v>       0.00002229       0.00001480       0.08958637 </v>
    </varray>
   </crystal>
   <varray name="positions" >
    <v>       0.37049061       0.00101520       0.43834092 </v>
    <v>       0.88016545      -0.00068671       0.43847965 </v>
    <v>       0.87903140      -0.00067063       0.18629391 </v>
    <v>       0.12411739       0.99985963       0.93957216 </v>
    <v>       0.37639614      -0.00073606       0.93546707 </v>
    <v>       0.37587637      -0.00071143       0.68737013 </v>
    <v>       0.87443217       0.00103163       0.93544792 </v>
    <v>       0.62679534       0.99979322       0.69084935 </v>
    <v>       0.36558752       0.00163976       0.18590087 </v>
    <v>       0.62740619       0.99985105       0.44286268 </v>
    <v>       0.62909959       0.99980283       0.17880119 </v>
    <v>       0.12032083       0.99985311       0.68343552 </v>
    <v>       0.00051648       0.29063535       0.06305628 </v>
    <v>       0.24775178       0.70466357       0.06277921 </v>
    <v>       0.24672756       0.29124427       0.31306220 </v>
    <v>       0.49886148       0.69088261       0.31327133 </v>
    <v>       0.50065778       0.30041241       0.06018247 </v>
    <v>       0.75152075       0.70450141       0.06073163 </v>
    <v>       0.75286885       0.30506501       0.31278444 </v>
    <v>       0.00121524       0.71339412       0.31271008 </v>
    <v>      -0.00017339       0.29042872       0.56277581 </v>
    <v>       0.24851541       0.70477720       0.56229348 </v>
    <v>       0.24925335       0.29991995       0.81306428 </v>
    <v>       0.50087491       0.70901924       0.81312443 </v>
    <v>       0.49981728       0.30036121       0.56460032 </v>
    <v>       0.75228863       0.70430136       0.56488584 </v>
    <v>       0.75072438       0.28633730       0.81279491 </v>
    <v>       0.99861417       0.70482982       0.81265845 </v>
    <v>       0.25156509       0.32733711       0.06264085 </v>
    <v>      -0.00002903       0.67215510       0.06225605 </v>
    <v>       0.50103107       0.32630506       0.31269884 </v>
    <v>       0.25243058       0.67307784       0.31264178 </v>
    <v>       0.74855915       0.32722743       0.06485941 </v>
    <v>       0.50006509       0.67334966       0.06470996 </v>
    <v>       0.99879901       0.32753343       0.31281957 </v>
    <v>       0.74743432       0.67310097       0.31286684 </v>
    <v>       0.25125648       0.32736117       0.56341612 </v>
    <v>       0.00022860       0.67242299       0.56356987 </v>
    <v>       0.49878194       0.32737639       0.81276740 </v>
    <v>       0.24996757       0.67231780       0.81272733 </v>
    <v>       0.74844181       0.32713828       0.56088853 </v>
    <v>       0.50027589       0.67289097       0.56124604 </v>
    <v>       0.00144243       0.32779489       0.81276736 </v>
    <v>       0.74973384       0.67242722       0.81283453 </v>
    <v>       0.49789536       0.07319736       0.06992440 </v>
    <v>       0.25529181       0.92214713       0.06185279 </v>
    <v>       0.25835046       0.08015530       0.31070878 </v>
    <v>      -0.00522028       0.91519384       0.31246174 </v>
    <v>       0.99754369       0.08189141       0.06004741 </v>
    <v>       0.74896625       0.92240481       0.06827422 </v>
    <v>       0.74422186       0.07015741       0.31236941 </v>
    <v>       0.50284735       0.93285371       0.31074563 </v>
    <v>       0.50182677       0.07354516       0.55885676 </v>
    <v>       0.25154803       0.92203431       0.56679804 </v>
    <v>       0.24863408       0.07460050       0.81058401 </v>
    <v>       0.00517849       0.92145182       0.81289906 </v>
    <v>       0.00179016       0.08255990       0.56445839 </v>
    <v>       0.74458326       0.92306795       0.55688494 </v>
    <v>       0.74976011       0.08559515       0.81238180 </v>
    <v>       0.49704509       0.91890275       0.81004561 </v>
   </varray>
  </structure>
  <varray name="forces" >
   <v>      -0.64814906       0.09866068       0.17074385 </v>
   <v>       0.72901389      -0.11042399       0.23374186 </v>
   <v>       0.70785137      -0.11005163       0.04312569 </v>
   <v>      -0.11034181       0.00202951       0.41443845 </v>
   <v>       0.22204378      -0.11206191      -0.23347134 </v>
   <v>       0.19858529      -0.11260095       0.05967218 </v>
   <v>      -0.19916870       0.10349423      -0.28435886 </v>
   <v>       0.37081738      -0.01432893       0.67189867 </v>
   <v>      -0.50846712       0.07377439       0.07839477 </v>
   <v>      -0.21168176       0.10209019      -0.09684054 </v>
   <v>       0.00360353       0.10711715      -0.40620072 </v>
   <v>      -0.40720555      -0.04322761      -0.34452331 </v>
   <v>       0.08549391       0.88027790       0.01369874 </v>
   <v>      -0.25672995      -0.27656736      -0.06621077 </v>
   <v>      -0.33877970       0.37596578       0.07837284 </v>
   <v>       0.00794815      -0.13924245       0.02063747 </v>
   <v>       0.07105891      -0.09990209      -0.17100875 </v>
   <v>       0.09657670      -0.25081125      -0.15218936 </v>
   <v>       0.15574100       0.07620493      -0.00269975 </v>
   <v>       0.22710822      -1.62176735      -0.02704339 </v>
   <v>      -0.08506632       1.10503822       0.03061360 </v>
   <v>      -0.12233357      -0.23412309      -0.02265083 </v>
   <v>      -0.12846939       0.08732518       0.00333169 </v>
   <v>       0.05952533      -0.62653762       0.07713512 </v>
   <v>      -0.03686963       0.01522793       0.05672126 </v>
   <v>       0.22526005      -0.07537998       0.15729472 </v>
   <v>       0.14684394       1.94677167      -0.01563640 </v>
   <v>      -0.07305650      -0.37701562      -0.02881955 </v>
   <v>       0.20594281       0.11163046       0.00912578 </v>
   <v>      -0.03210439      -0.14589051      -0.10505841 </v>
   <v>       0.09102356       0.30553991      -0.01356440 </v>
   <v>       0.31489895      -0.02289348      -0.06215934 </v>
   <v>      -0.19450015       0.11363329       0.26903680 </v>
   <v>       0.01138387      -0.12829684       0.20478768 </v>
   <v>      -0.16627199       0.06664264      -0.00507017 </v>
   <v>      -0.26900405      -0.28341192       0.00491327 </v>
   <v>       0.13484621       0.12945169       0.06532081 </v>
   <v>       0.03223874      -0.07902311       0.12306984 </v>
   <v>      -0.14576469       0.09545950      -0.02687704 </v>
   <v>      -0.01808646      -0.27274234      -0.00872124 </v>
   <v>      -0.21736604       0.11567007      -0.26332057 </v>
   <v>       0.04687296      -0.19572524      -0.16444288 </v>
   <v>       0.23436277       0.20462693      -0.02228069 </v>
   <v>      -0.01534687      -0.05227534      -0.00990356 </v>
   <v>      -0.58707271       0.45071727       0.86214080 </v>
   <v>       0.63826642       0.04954929      -0.39409952 </v>
   <v>       1.10315943      -0.37091187      -0.06080778 </v>
   <v>      -1.11395349       1.94134477       0.00827816 </v>
   <v>      -0.51300472      -0.98794675      -0.52781345 </v>
   <v>       0.49078035      -0.07469511       0.50395047 </v>
   <v>      -0.48875634       0.49511986      -0.03620353 </v>
   <v>       0.23789658      -0.52959066      -0.31472644 </v>
   <v>       0.18690378       0.31619622      -0.18575165 </v>
   <v>       0.16921774       0.14439558       0.80085847 </v>
   <v>      -0.34522992       0.18343870      -0.35291718 </v>
   <v>       0.80134212       0.21271665       0.16950311 </v>
   <v>       0.25815922      -0.99649896       0.25073593 </v>
   <v>      -0.47371951      -0.16264937      -0.47433988 </v>
   <v>      -0.03490438      -2.18292396       0.01019754 </v>
   <v>      -0.52336218       0.77940666      -0.51202825 </v>
  </varray>
  <varray name="stress" >
   <v>       5.96373868      -1.93531276      -0.60279227 </v>
   <v>      -1.93531242       9.50549416       0.34108395 </v>
   <v>      -0.60279214       0.34108463       5.00323164 </v>
  </varray>
  <energy>
   <i name="e_fr_energy">   -306.70932594 </i>
   <i name="e_wo_entrp">   -306.70932594 </i>
   <i name="e_0_energy">      0.00000000 </i>
  </energy>
  <time name="totalsc">  770.38  773.00</time>
 </calculation>
 <calculation>
  <scstep>
   <time name="dav">   67.99   68.23</time>
   <time name="total">   68.79   69.04</time>
   <energy>
    <i name="alphaZ">   1071.39863400 </i>
    <i name="ewald"> -30807.15078448 </i>
    <i name="hartreedc"> -12730.96678060 </i>
    <i name="XCdc">   1342.36573676 </i>
    <i name="pawpsdc">  44061.44364603 </i>
    <i name="pawaedc"> -43458.70997700 </i>
    <i name="eentropy">      0.00000000 </i>
    <i name="bandstr">  -4179.34426307 </i>
    <i name="atom">  44408.54722957 </i>
    <i name="e_fr_energy">   -292.41655879 </i>
    <i name="e_wo_entrp">   -292.41655879 </i>
    <i name="e_0_energy">   -292.41655879 </i>
   </energy>
  </scstep>
  <scstep>
   <time name="dav">   68.20   68.56</time>
   <time name="total">   69.00   69.37</time>
   <energy>
    <i name="e_fr_energy">   -293.85128461 </i>
    <i name="e_wo_entrp">   -293.85128461 </i>
    <i name="e_0_energy">   -293.85128461 </i>
   </energy>
  </scstep>
  <scstep>
   <time name="dav">   85.11   85.39</time>
   <time name="total">   85.92   86.19</time>
   <energy>
    <i name="e_fr_energy">   -293.82659481 </i>
    <i name="e_wo_entrp">   -293.82659481 </i>
    <i name="e_0_energy">   -293.82659481 </i>
   </energy>
  </scstep>
  <scstep>
   <time name="dav">   72.70   72.89</time>
   <time name="total">   73.51   73.70</time>
   <energy>
    <i name="e_fr_energy">   -293.79541663 </i>
    <i name="e_wo_entrp">   -293.79541663 </i>
    <i name="e_0_energy">   -293.79541663 </i>
   </energy>
  </scstep>
  <scstep>
   <time name="dav">   73.86   74.06</time>
   <time name="total">   74.67   74.87</time>
   <energy>
    <i name="e_fr_energy">   -293.77851122 </i>
    <i name="e_wo_entrp">   -293.77851122 </i>
    <i name="e_0_energy">   -293.77851122 </i>
   </energy>
  </scstep>
  <scstep>
   <time name="dav">   71.85   72.03</time>
   <time name="total">   72.66   72.84</time>
   <energy>
    <i name="e_fr_energy">   -293.77798552 </i>
    <i name="e_wo_entrp">   -293.77798552 </i>
    <i name="e_0_energy">   -293.77798552 </i>
   </energy>
  </scstep>
  <scstep>
   <time name="dav">   76.18   76.42</time>
   <time name="total">   76.99   77.23</time>
   <energy>
    <i name="e_fr_energy">   -293.77811744 </i>
    <i name="e_wo_entrp">   -293.77811744 </i>
    <i name="e_0_energy">   -293.77811744 </i>
   </energy>
  </scstep>
  <scstep>
   <time name="dav">   79.10   79.27</time>
   <time name="total">   79.91   80.08</time>
   <energy>
    <i name="e_fr_energy">   -293.77806338 </i>
    <i name="e_wo_entrp">   -293.77806338 </i>
    <i name="e_0_energy">   -293.77806338 </i>
   </energy>
  </scstep>
  <scstep>
   <time name="dav">   81.38   81.59</time>
   <time name="total">   82.19   82.40</time>
   <energy>
    <i name="e_fr_energy">   -293.77805506 </i>
    <i name="e_wo_entrp">   -293.77805506 </i>
    <i name="e_0_energy">   -293.77805506 </i>
   </energy>
  </scstep>
  <scstep>
   <time name="dav">   68.98   69.13</time>
   <time name="total">   69.78   69.94</time>
   <energy>
    <i name="e_fr_energy">   -293.77805844 </i>
    <i name="e_wo_entrp">   -293.77805844 </i>
    <i name="e_0_energy">   -293.77805844 </i>
   </energy>
  </scstep>
  <scstep>
   <time name="dav">   70.16   70.32</time>
   <time name="total">   70.97   71.13</time>
   <energy>
    <i name="e_fr_energy">   -293.77805946 </i>
    <i name="e_wo_entrp">   -293.77805946 </i>
    <i name="e_0_energy">   -293.77805946 </i>
   </energy>
  </scstep>
  <scstep>
   <time name="dav">   57.23   57.36</time>
   <time name="total">   58.05   58.18</time>
   <energy>
    <i name="e_fr_energy">   -293.77806165 </i>
    <i name="e_wo_entrp">   -293.77806165 </i>
    <i name="e_0_energy">   -293.77806165 </i>
   </energy>
  </scstep>
  <scstep>
   <time name="dav">   46.77   46.87</time>
   <time name="total">   46.84   46.95</time>
   <energy>
    <i name="alphaZ">   1071.39863400 </i>
    <i name="ewald"> -30807.15078448 </i>
    <i name="hartreedc"> -12798.38499562 </i>
    <i name="XCdc">   1345.49622673 </i>
    <i name="pawpsdc">  43714.73940096 </i>
    <i name="pawaedc"> -43107.31273558 </i>
    <i name="eentropy">      0.00000000 </i>
    <i name="bandstr">  -4121.11103814 </i>
    <i name="atom">  44408.54722957 </i>
    <i name="e_fr_energy">   -293.77806256 </i>
    <i name="e_wo_entrp">   -293.77806256 </i>
    <i name="e_0_energy">   -293.77806256 </i>
   </energy>
  </scstep>
  <structure>
   <crystal>
    <varray name="basis" >
     <v>      11.17560505      -0.00739691      -0.00768624 </v>
     <v>      -0.00629356       9.53422265      -0.00024727 </v>
     <v>      -0.00769291      -0.00027719      11.18779511 </v>
    </varray>
    <i name="volume">   1192.06639082 </i>
    <varray name="rec_basis" >
     <v>       0.08948070       0.00005907       0.00006153 </v>
     <v>       0.00006942       0.10488537       0.00000265 </v>
     <v>       0.00006148       0.00000236       0.08938316 </v>
    </varray>
   </crystal>
   <varray name="positions" >
    <v>       0.36597747       0.00181394       0.43959208 </v>
    <v>       0.88497817      -0.00154774       0.44004995 </v>
    <v>       0.88362657      -0.00152422       0.18627100 </v>
    <v>       0.12319213       0.99987777       0.94229965 </v>
    <v>       0.37770052      -0.00162221       0.93397347 </v>
    <v>       0.37717517      -0.00159099       0.68780297 </v>
    <v>       0.87324148       0.00185838       0.93373125 </v>
    <v>       0.62915655       0.99970484       0.69512807 </v>
    <v>       0.36018512       0.00254034       0.18588404 </v>
    <v>       0.62723238       0.00036383       0.44460376 </v>
    <v>       0.63072724       0.00032112       0.17418200 </v>
    <v>       0.11704940       0.99964342       0.68074045 </v>
    <v>       0.00101772       0.29337338       0.06320329 </v>
    <v>       0.24580717       0.70323424       0.06248666 </v>
    <v>       0.24415954       0.29169230       0.31348089 </v>
    <v>       0.49853463       0.68515852       0.31351991 </v>
    <v>       0.50114831       0.30180085       0.05851421 </v>
    <v>       0.75243076       0.70314032       0.05934004 </v>
    <v>       0.75460679       0.30901083       0.31276130 </v>
    <v>       0.00266444       0.70841850       0.31255565 </v>
    <v>      -0.00064468       0.29421171       0.56289374 </v>
    <v>       0.24741588       0.70359991       0.56201151 </v>
    <v>       0.24848553       0.30206371       0.81316625 </v>
    <v>       0.50148941       0.70741963       0.81356080 </v>
    <v>       0.49954793       0.30230530       0.56548392 </v>
    <v>       0.75402157       0.70374183       0.56629858 </v>
    <v>       0.75165320       0.29283327       0.81272069 </v>
    <v>       0.99785306       0.70295988       0.81247777 </v>
    <v>       0.25298391       0.32809723       0.06260135 </v>
    <v>      -0.00019360       0.67104027       0.06159348 </v>
    <v>       0.50180573       0.32765824       0.31258385 </v>
    <v>       0.25465929       0.67290788       0.31230038 </v>
    <v>       0.74719766       0.32795947       0.06671796 </v>
    <v>       0.50011943       0.67275431       0.06624257 </v>
    <v>       0.99767907       0.32814152       0.31278335 </v>
    <v>       0.74538827       0.67164394       0.31288939 </v>
    <v>       0.25226260       0.32821901       0.56389318 </v>
    <v>       0.00043010       0.67173804       0.56434660 </v>
    <v>       0.49774289       0.32807119       0.81262001 </v>
    <v>       0.24989756       0.67063015       0.81264245 </v>
    <v>       0.74694009       0.32784757       0.55906371 </v>
    <v>       0.50055611       0.67179349       0.55996910 </v>
[...]
       <r>    8.5990    0.0000 </r>
       <r>    8.6289    0.0000 </r>
       <r>    8.6496    0.0000 </r>
       <r>    8.7118    0.0000 </r>
       <r>    8.7534    0.0000 </r>
       <r>    8.8463    0.0000 </r>
       <r>    8.8893    0.0000 </r>
      </set>
     </set>
    </set>
   </array>
  </eigenvalues>
  <separator name="orbital magnetization" >
   <v name="MAGDIPOLOUT">      0.00000000      0.00000000      0.00000000</v>
  </separator>
  <dos>
   <i name="efermi">      4.12075910 </i>
   <total>
    <array>
     <dimension dim="1">gridpoints</dimension>
     <dimension dim="2">spin</dimension>
     <field>energy</field>
     <field>total</field>
     <field>integrated</field>
     <set>
      <set comment="spin 1">
       <r>   -42.4095     0.0000     0.0000 </r>
       <r>   -42.2273     0.0000     0.0000 </r>
       <r>   -42.0452     0.0000     0.0000 </r>
       <r>   -41.8631     0.0000     0.0000 </r>
       <r>   -41.6810     0.0000     0.0000 </r>
       <r>   -41.4989     0.0000     0.0000 </r>
       <r>   -41.3168     0.0000     0.0000 </r>
       <r>   -41.1347     0.0000     0.0000 </r>
       <r>   -40.9525     0.0000     0.0000 </r>
       <r>   -40.7704     0.0000     0.0000 </r>
       <r>   -40.5883     0.0000     0.0000 </r>
       <r>   -40.4062     0.0000     0.0000 </r>
       <r>   -40.2241     0.0000     0.0000 </r>
       <r>   -40.0420     0.0000     0.0000 </r>
       <r>   -39.8599     0.0000     4.0000 </r>
       <r>   -39.6777     0.0000     4.0000 </r>
       <r>   -39.4956     0.0000    12.0000 </r>
       <r>   -39.3135     0.0000    14.0000 </r>
       <r>   -39.1314     0.0000    16.0000 </r>
       <r>   -38.9493     0.0000    16.0000 </r>
       <r>   -38.7672     0.0000    16.0000 </r>
       <r>   -38.5851     0.0000    16.0000 </r>
       <r>   -38.4029     0.0000    16.0000 </r>
       <r>   -38.2208     0.0000    16.0000 </r>
       <r>   -38.0387     0.0000    16.0000 </r>
       <r>   -37.8566     0.0000    16.0000 </r>
       <r>   -37.6745     0.0000    16.0000 </r>
       <r>   -37.4924     0.0000    16.0000 </r>
       <r>   -37.3103     0.0000    16.0000 </r>
       <r>   -37.1281     0.0000    16.0000 </r>
       <r>   -36.9460     0.0000    16.0000 </r>
       <r>   -36.7639     0.0000    16.0000 </r>
       <r>   -36.5818     0.0000    16.0000 </r>
       <r>   -36.3997     0.0000    16.0000 </r>
       <r>   -36.2176     0.0000    16.0000 </r>
       <r>   -36.0355     0.0000    16.0000 </r>
       <r>   -35.8533     0.0000    16.0000 </r>
       <r>   -35.6712     0.0000    16.0000 </r>
       <r>   -35.4891     0.0000    16.0000 </r>
       <r>   -35.3070     0.0000    16.0000 </r>
       <r>   -35.1249     0.0000    16.0000 </r>
       <r>   -34.9428     0.0000    16.0000 </r>
       <r>   -34.7607     0.0000    16.0000 </r>
       <r>   -34.5785     0.0000    16.0000 </r>
       <r>   -34.3964     0.0000    16.0000 </r>
       <r>   -34.2143     0.0000    16.0000 </r>
       <r>   -34.0322     0.0000    16.0000 </r>
       <r>   -33.8501     0.0000    16.0000 </r>
       <r>   -33.6680     0.0000    16.0000 </r>
       <r>   -33.4859     0.0000    16.0000 </r>
       <r>   -33.3037     0.0000    16.0000 </r>
       <r>   -33.1216     0.0000    16.0000 </r>
       <r>   -32.9395     0.0000    16.0000 </r>
       <r>   -32.7574     0.0000    16.0000 </r>
       <r>   -32.5753     0.0000    16.0000 </r>
       <r>   -32.3932     0.0000    16.0000 </r>
       <r>   -32.2111     0.0000    16.0000 </r>
       <r>   -32.0289     0.0000    16.0000 </r>
       <r>   -31.8468     0.0000    16.0000 </r>
       <r>   -31.6647     0.0000    16.0000 </r>
       <r>   -31.4826     0.0000    16.0000 </r>
       <r>   -31.3005     0.0000    16.0000 </r>
       <r>   -31.1184     0.0000    16.0000 </r>
       <r>   -30.9363     0.0000    16.0000 </r>
       <r>   -30.7541     0.0000    16.0000 </r>
       <r>   -30.5720     0.0000    16.0000 </r>
       <r>   -30.3899     0.0000    16.0000 </r>
       <r>   -30.2078     0.0000    16.0000 </r>
       <r>   -30.0257     0.0000    16.0000 </r>
       <r>   -29.8436     0.0000    16.0000 </r>
       <r>   -29.6614     0.0000    16.0000 </r>
       <r>   -29.4793     0.0000    16.0000 </r>
       <r>   -29.2972     0.0000    16.0000 </r>
       <r>   -29.1151     0.0000    16.0000 </r>
       <r>   -28.9330     0.0000    16.0000 </r>
       <r>   -28.7509     0.0000    16.0000 </r>
       <r>   -28.5688     0.0000    16.0000 </r>
       <r>   -28.3866     0.0000    16.0000 </r>
       <r>   -28.2045     0.0000    16.0000 </r>
       <r>   -28.0224     0.0000    16.0000 </r>
       <r>   -27.8403     0.0000    16.0000 </r>
       <r>   -27.6582     0.0000    16.0000 </r>
       <r>   -27.4761     0.0000    16.0000 </r>
       <r>   -27.2940     0.0000    16.0000 </r>
       <r>   -27.1118     0.0000    16.0000 </r>
       <r>   -26.9297     0.0000    16.0000 </r>
       <r>   -26.7476     0.0000    16.0000 </r>
       <r>   -26.5655     0.0000    16.0000 </r>
       <r>   -26.3834     0.0000    16.0000 </r>
       <r>   -26.2013     0.0000    16.0000 </r>
       <r>   -26.0192     0.0000    16.0000 </r>
       <r>   -25.8370     0.0000    16.0000 </r>
       <r>   -25.6549     0.0000    16.0000 </r>
       <r>   -25.4728     0.0000    16.0000 </r>
       <r>   -25.2907     0.0000    16.0000 </r>
       <r>   -25.1086     0.0000    16.0000 </r>
       <r>   -24.9265     0.0000    16.0000 </r>
       <r>   -24.7444     0.0000    16.0000 </r>
       <r>   -24.5622     0.0000    16.0000 </r>
       <r>   -24.3801     0.0000    16.0000 </r>
       <r>   -24.1980     0.0000    16.0000 </r>
       <r>   -24.0159     0.0000    16.0000 </r>
       <r>   -23.8338     0.0000    16.0000 </r>
       <r>   -23.6517     0.0000    16.0000 </r>
       <r>   -23.4696     0.0000    16.0000 </r>
       <r>   -23.2874     0.0000    16.0000 </r>
       <r>   -23.1053     0.0000    16.0000 </r>
       <r>   -22.9232     0.0000    16.0000 </r>
       <r>   -22.7411     0.0000    16.0000 </r>
       <r>   -22.5590     0.0000    16.0000 </r>
       <r>   -22.3769     0.0000    16.0000 </r>
       <r>   -22.1948     0.0000    16.0000 </r>
       <r>   -22.0126     0.0000    16.0000 </r>
       <r>   -21.8305     0.0000    16.0000 </r>
       <r>   -21.6484     0.0000    16.0000 </r>
       <r>   -21.4663     0.0000    16.0000 </r>
       <r>   -21.2842     0.0000    16.0000 </r>
       <r>   -21.1021     0.0000    16.0000 </r>
       <r>   -20.9200     0.0000    16.0000 </r>
       <r>   -20.7378     0.0000    16.0000 </r>
       <r>   -20.5557     0.0000    16.0000 </r>
       <r>   -20.3736     0.0000    16.0000 </r>
       <r>   -20.1915     0.0000    16.0000 </r>
       <r>   -20.0094     0.0000    16.0000 </r>
       <r>   -19.8273     0.0000    16.0000 </r>
       <r>   -19.6452     0.0000    16.0000 </r>
       <r>   -19.4630     0.0000    16.0000 </r>
       <r>   -19.2809     0.0000    16.0000 </r>
       <r>   -19.0988     0.0000    16.0000 </r>
       <r>   -18.9167     0.0000    16.0000 </r>
       <r>   -18.7346     0.0000    58.0000 </r>
       <r>   -18.5525     0.0000   142.0000 </r>
       <r>   -18.3704     0.0000   172.0000 </r>
       <r>   -18.1882     0.0000   176.0000 </r>
       <r>   -18.0061     0.0000   176.0000 </r>
       <r>   -17.8240     0.0000   176.0000 </r>
       <r>   -17.6419     0.0000   176.0000 </r>
       <r>   -17.4598     0.0000   176.0000 </r>
       <r>   -17.2777     0.0000   176.0000 </r>
       <r>   -17.0956     0.0000   176.0000 </r>
       <r>   -16.9134     0.0000   176.0000 </r>
       <r>   -16.7313     0.0000   176.0000 </r>
       <r>   -16.5492     0.0000   176.0000 </r>
       <r>   -16.3671     0.0000   176.0000 </r>
       <r>   -16.1850     0.0000   176.0000 </r>
       <r>   -16.0029     0.0000   176.0000 </r>
       <r>   -15.8208     0.0000   176.0000 </r>
       <r>   -15.6386     0.0000   176.0000 </r>
       <r>   -15.4565     0.0000   176.0000 </r>
       <r>   -15.2744     0.0000   176.0000 </r>
       <r>   -15.0923     0.0000   176.0000 </r>
       <r>   -14.9102     0.0000   176.0000 </r>
       <r>   -14.7281     0.0000   176.0000 </r>
       <r>   -14.5460     0.0000   176.0000 </r>
       <r>   -14.3638     0.0000   176.0000 </r>
       <r>   -14.1817     0.0000   176.0000 </r>
       <r>   -13.9996     0.0000   176.0000 </r>
       <r>   -13.8175     0.0000   176.0000 </r>
       <r>   -13.6354     0.0000   176.0000 </r>
       <r>   -13.4533     0.0000   176.0000 </r>
       <r>   -13.2712     0.0000   178.0000 </r>
       <r>   -13.0890    61.7381   180.0574 </r>
       <r>   -12.9069    31.7288   188.0276 </r>
       <r>   -12.7248     0.0000   198.0000 </r>
       <r>   -12.5427     0.0000   204.0000 </r>
       <r>   -12.3606     0.0000   208.0000 </r>
       <r>   -12.1785     0.0000   208.0000 </r>
       <r>   -11.9964     0.0000   208.0000 </r>
       <r>   -11.8142     0.0000   208.0000 </r>
       <r>   -11.6321     0.0000   208.0000 </r>
       <r>   -11.4500     0.0000   208.0000 </r>
       <r>   -11.2679     0.0000   208.0000 </r>
       <r>   -11.0858     0.0000   208.0000 </r>
       <r>   -10.9037     0.0000   208.0000 </r>
       <r>   -10.7216     0.0000   208.0000 </r>
       <r>   -10.5394     0.0000   208.0000 </r>
       <r>   -10.3573     0.0000   208.0000 </r>
       <r>   -10.1752     0.0000   208.0000 </r>
       <r>    -9.9931     0.0000   208.0000 </r>
       <r>    -9.8110     0.0000   208.0000 </r>
       <r>    -9.6289     0.0000   208.0000 </r>
       <r>    -9.4468     0.0005   208.0000 </r>
       <r>    -9.2646    12.6926   209.4410 </r>
       <r>    -9.0825    13.5298   211.1277 </r>
       <r>    -8.9004     0.8976   212.0034 </r>
       <r>    -8.7183    13.2932   215.4544 </r>
       <r>    -8.5362    22.5730   217.8832 </r>
       <r>    -8.3541    21.0277   222.7952 </r>
       <r>    -8.1720    16.2627   224.3232 </r>
       <r>    -7.9898    31.6155   230.5900 </r>
       <r>    -7.8077    14.7444   235.3306 </r>
       <r>    -7.6256    29.0802   237.9980 </r>
       <r>    -7.4435     0.0000   240.0000 </r>
       <r>    -7.2614     0.0000   240.0000 </r>
       <r>    -7.0793     0.0000   240.0000 </r>
       <r>    -6.8972     0.0000   240.0000 </r>
       <r>    -6.7150     0.0000   240.0000 </r>
       <r>    -6.5329     0.0000   240.0000 </r>
       <r>    -6.3508     4.7194   240.1338 </r>
       <r>    -6.1687    53.1114   243.3213 </r>
       <r>    -5.9866    11.6986   247.8770 </r>
       <r>    -5.8045    29.8401   250.9880 </r>
       <r>    -5.6224    25.0145   256.0865 </r>
       <r>    -5.4402    19.9562   260.4244 </r>
       <r>    -5.2581    10.2628   263.1633 </r>
       <r>    -5.0760     2.7817   264.0896 </r>
       <r>    -4.8939    11.7061   265.4925 </r>
       <r>    -4.7118     8.9586   267.7455 </r>
       <r>    -4.5297     5.1111   268.8172 </r>
       <r>    -4.3476     8.6405   270.0275 </r>
       <r>    -4.1654     3.8338   271.3987 </r>
       <r>    -3.9833     1.5629   271.8221 </r>
       <r>    -3.8012     0.2945   271.9904 </r>
       <r>    -3.6191     0.0000   272.0000 </r>
       <r>    -3.4370     0.0000   272.0000 </r>
       <r>    -3.2549     0.0000   272.0000 </r>
       <r>    -3.0728     0.0000   272.0000 </r>
       <r>    -2.8906     0.0000   272.0000 </r>
       <r>    -2.7085     0.0000   272.0000 </r>
       <r>    -2.5264     0.0000   272.0000 </r>
       <r>    -2.3443     0.0000   272.0000 </r>
       <r>    -2.1622     0.0000   272.0000 </r>
       <r>    -1.9801     0.0000   272.0000 </r>
       <r>    -1.7980     0.0000   272.0000 </r>
       <r>    -1.6158     0.0000   272.0000 </r>
       <r>    -1.4337     0.0000   272.0000 </r>
       <r>    -1.2516     6.9153   272.4339 </r>
       <r>    -1.0695     6.6080   273.9654 </r>
       <r>    -0.8874    11.9298   275.3911 </r>
       <r>    -0.7053    11.6334   277.9644 </r>
       <r>    -0.5232    11.6444   279.7456 </r>
       <r>    -0.3410    26.2488   283.5114 </r>
       <r>    -0.1589    35.5643   288.9593 </r>
       <r>     0.0232    40.9106   296.4140 </r>
       <r>     0.2053    32.2341   302.8449 </r>
       <r>     0.3874    37.2686   310.4532 </r>
       <r>     0.5695    28.8683   316.1250 </r>
       <r>     0.7516    36.9208   322.7302 </r>
       <r>     0.9338    49.7540   330.2175 </r>
       <r>     1.1159    45.5267   338.1049 </r>
       <r>     1.2980    51.1632   346.4467 </r>
       <r>     1.4801    50.0415   354.9959 </r>
       <r>     1.6622    45.9330   363.3103 </r>
       <r>     1.8443    39.7585   371.6577 </r>
       <r>     2.0264    53.0334   380.0352 </r>
       <r>     2.2086    51.7524   389.6636 </r>
       <r>     2.3907    63.9166   399.7844 </r>
       <r>     2.5728    61.3511   411.7114 </r>
       <r>     2.7549    61.7935   423.8732 </r>
       <r>     2.9370    73.3446   435.9509 </r>
       <r>     3.1191    43.1560   444.4274 </r>
       <r>     3.3012    32.9814   450.4672 </r>
       <r>     3.4834    21.6862   457.8475 </r>
       <r>     3.6655    14.5231   461.3487 </r>
       <r>     3.8476     7.1447   463.3215 </r>
       <r>     4.0297     0.7133   463.9759 </r>
       <r>     4.2118     0.0000   464.0000 </r>
       <r>     4.3939     0.0000   464.0000 </r>
       <r>     4.5760     0.0000   464.0000 </r>
       <r>     4.7582     0.0000   464.0000 </r>
       <r>     4.9403     0.0000   464.0000 </r>
       <r>     5.1224     0.2633   464.0048 </r>
       <r>     5.3045     5.2802   464.4677 </r>
       <r>     5.4866    10.8592   465.9409 </r>
       <r>     5.6687    17.0404   467.8793 </r>
       <r>     5.8508    15.6847   472.1204 </r>
       <r>     6.0330    13.5916   474.7587 </r>
       <r>     6.2151    13.3140   477.1848 </r>
       <r>     6.3972    14.2417   479.6887 </r>
       <r>     6.5793    15.2462   482.3727 </r>
       <r>     6.7614    17.0088   485.2826 </r>
       <r>     6.9435    21.0940   488.6924 </r>
       <r>     7.1256    22.2631   492.6441 </r>
       <r>     7.3078    30.9835   497.2153 </r>
       <r>     7.4899    33.6784   503.8585 </r>
       <r>     7.6720    35.8379   510.2398 </r>
       <r>     7.8541    31.2678   516.6263 </r>
       <r>     8.0362    27.6078   521.8104 </r>
       <r>     8.2183    27.3929   526.8675 </r>
       <r>     8.4004    29.7869   531.8974 </r>
       <r>     8.5826    35.4156   537.9896 </r>
       <r>     8.7647    35.8460   545.1611 </r>
       <r>     8.9468    24.0768   550.6844 </r>
       <r>     9.1289    16.8954   554.4090 </r>
       <r>     9.3110    13.9269   557.1788 </r>
       <r>     9.4931     3.6425   559.1476 </r>
       <r>     9.6752     1.3076   559.9711 </r>
       <r>     9.8574     0.0000   560.0000 </r>
       <r>    10.0395     0.0000   560.0000 </r>
       <r>    10.2216     0.0000   560.0000 </r>
       <r>    10.4037     0.0000   560.0000 </r>
       <r>    10.5858     0.0000   560.0000 </r>
       <r>    10.7679     0.0000   560.0000 </r>
       <r>    10.9500     0.0000   560.0000 </r>
       <r>    11.1322     0.0000   560.0000 </r>
       <r>    11.3143     0.0000   560.0000 </r>
       <r>    11.4964     0.0000   560.0000 </r>
       <r>    11.6785     0.0000   560.0000 </r>
       <r>    11.8606     0.0000   560.0000 </r>
       <r>    12.0427     0.0000   560.0000 </r>
       <r>    12.2248     0.0000   560.0000 </r>
      </set>
     </set>
    </array>
   </total>
  </dos>
 </calculation>
 <structure name="finalpos" >
  <crystal>
   <varray name="basis" >
    <v>      11.23050871       0.04070577      -0.00443669 </v>
    <v>       0.03809810       9.57070323       0.04923185 </v>
    <v>      -0.00455172       0.05881028      11.20316521 </v>
   </varray>
   <i name="volume">   1204.10940634 </i>
   <varray name="rec_basis" >
    <v>       0.08904446      -0.00035465       0.00003804 </v>
    <v>      -0.00037895       0.10448986      -0.00054867 </v>
    <v>       0.00003693      -0.00045932       0.08926291 </v>
   </varray>
  </crystal>
  <varray name="positions" >
   <v>       0.32377289       0.02790524       0.46826311 </v>
   <v>       0.96751507      -0.00656103       0.45042943 </v>
   <v>       0.91703831      -0.03286096       0.14825896 </v>
   <v>       0.14247253       0.00104956       0.95162300 </v>
   <v>       0.39429772      -0.00137910       0.93051828 </v>
   <v>       0.39080811      -0.00126417       0.68535418 </v>
   <v>       0.91040710       0.01929488       0.88985762 </v>
   <v>       0.67853976       0.96253211       0.72534540 </v>
   <v>       0.36436066      -0.00918603       0.19357686 </v>
   <v>       0.59857904      -0.00076965       0.43695031 </v>
   <v>       0.62963178       0.00477427       0.17372551 </v>
   <v>       0.13016314       0.99866644       0.69559702 </v>
   <v>      -0.00629100       0.29247349       0.06145538 </v>
   <v>       0.25188193       0.69903130       0.06003740 </v>
   <v>       0.24083980       0.30501098       0.31009363 </v>
   <v>       0.49740197       0.67922585       0.30894549 </v>
   <v>       0.49385620       0.30850253       0.06295053 </v>
   <v>       0.75155066       0.69408101       0.06507601 </v>
   <v>       0.74193214       0.31148572       0.31493815 </v>
   <v>      -0.00398075       0.69620437       0.31221137 </v>
   <v>      -0.00357307       0.30528085       0.56674468 </v>
   <v>       0.24715362       0.69944625       0.56529449 </v>
   <v>       0.24625459       0.31008564       0.81224798 </v>
   <v>       0.49925948       0.70050668       0.80937921 </v>
   <v>       0.49138026       0.30759333       0.55970776 </v>
   <v>       0.74141971       0.69430146       0.56220306 </v>
   <v>       0.74761338       0.29243096       0.81259554 </v>
   <v>       0.00226267       0.69496101       0.81324664 </v>
   <v>       0.24220965       0.34507063       0.06298082 </v>
   <v>      -0.00488945       0.65730209       0.06391130 </v>
   <v>       0.48514636       0.36850554       0.31138047 </v>
   <v>       0.25237670       0.71954723       0.30859034 </v>
   <v>       0.74021688       0.32892678       0.06543320 </v>
   <v>       0.49482427       0.64631140       0.06215165 </v>
   <v>       0.98747701       0.27505040       0.31474020 </v>
   <v>       0.74632453       0.63967814       0.31361460 </v>
   <v>       0.24023726       0.35771726       0.56081886 </v>
   <v>      -0.00507240       0.71725804       0.56424810 </v>
   <v>       0.49120711       0.31782023       0.81247150 </v>
   <v>       0.24914663       0.64136093       0.81080579 </v>
   <v>       0.73879399       0.33051217       0.56264275 </v>
   <v>       0.49196330       0.64418146       0.56215764 </v>
   <v>      -0.00769490       0.35901241       0.81203354 </v>
   <v>       0.74812208       0.70013927       0.81117129 </v>
   <v>       0.48721282       0.08794055       0.08731785 </v>
   <v>       0.27831730       0.91505479       0.04879802 </v>
   <v>       0.28075623       0.09705333       0.31553844 </v>
   <v>      -0.03164506       0.90315844       0.30239575 </v>
   <v>       0.99830246       0.08252402       0.03031858 </v>
   <v>       0.75766541       0.90549746       0.09324035 </v>
   <v>       0.69156734       0.10185898       0.31509109 </v>
   <v>       0.51107609       0.90730930       0.29154633 </v>
   <v>       0.47328458       0.09035964       0.53806635 </v>
   <v>       0.25886302       0.91429722       0.59481682 </v>
   <v>       0.24510234       0.09032476       0.80999667 </v>
   <v>       0.03878536       0.90738962       0.82548789 </v>
   <v>       0.02247420       0.09489449       0.58270359 </v>
   <v>       0.69917094       0.90326129       0.55612864 </v>
   <v>       0.77182620       0.08500896       0.81269295 </v>
   <v>       0.49030404       0.91324015       0.80268164 </v>
  </varray>
 </structure>
</modeling>
