<?xml version="1.0" encoding="ISO-8859-1"?>
<modeling>
 <generator>
  <i name="program" type="string">vasp </i>
  <i name="version" type="string">5.4.4.18Apr17-6-g9f103f2a35  </i>
  <i name="subversion" type="string">(build Jul 31 2017 11:33:29) complex            parallel </i>
  <i name="platform" type="string">LinuxIFC </i>
  <i name="date" type="string">2021 09 22 </i>
  <i name="time" type="string">13:03:57 </i>
 </generator>
 <incar>
  <i type="string" name="SYSTEM"> La2O2S</i>
  <i type="string" name="PREC">normal</i>
  <i type="int" name="NELMIN">     4</i>
  <i type="int" name="IBRION">     2</i>
  <i type="int" name="NFREE">    10</i>
  <i name="EDIFF">      0.00000100</i>
  <i name="EDIFFG">     -0.01000000</i>
  <i type="int" name="NSW">   200</i>
  <i type="int" name="ISIF">     3</i>
  <i name="ENCUT">    600.00000000</i>
  <i name="ENAUG">    900.00000000</i>
  <i type="int" name="ISMEAR">    -5</i>
  <i type="logical" name="LWAVE"> F  </i>
  <i type="logical" name="LCHARG"> F  </i>
  <v type="int" name="KPOINT_BSE">    -1     0     0     0</v>
 </incar>
 <structure name="primitive_cell" >
  <crystal>
   <varray name="basis" >
    <v>      11.17850000       0.00000000       0.00000000 </v>
    <v>       0.00000000       9.57460000       0.00000000 </v>
    <v>       0.00000000       0.00000000      11.18240000 </v>
   </varray>
   <i name="volume">   1196.84853820 </i>
   <varray name="rec_basis" >
    <v>       0.08945744       0.00000000       0.00000000 </v>
    <v>       0.00000000       0.10444301       0.00000000 </v>
    <v>       0.00000000       0.00000000       0.08942624 </v>
   </varray>
  </crystal>
  <varray name="positions" >
   <v>       0.12461000      -0.00016000       0.18687000 </v>
   <v>      -0.00013000       0.07798000       0.06246000 </v>
   <v>       0.24987000      -0.07798000       0.06246000 </v>
   <v>       0.00013000      -0.07798000       0.31246000 </v>
   <v>       0.25013000       0.07798000       0.31246000 </v>
   <v>      -0.12539000       0.00017000       0.18687000 </v>
   <v>       0.37461000       0.00017000       0.18687000 </v>
   <v>       0.12539000      -0.00016000      -0.06313000 </v>
   <v>       0.00013000       0.29519000       0.06281000 </v>
   <v>       0.25013000      -0.29519000       0.06281000 </v>
   <v>      -0.00013000      -0.29519000       0.31282000 </v>
   <v>       0.24987000       0.29519000       0.31282000 </v>
   <v>       0.00005000      -0.32677000       0.06286000 </v>
   <v>       0.25005000       0.32677000       0.06286000 </v>
   <v>      -0.00005000       0.32677000       0.31286000 </v>
   <v>       0.24995000      -0.32677000       0.31286000 </v>
   <v>      -0.12461000       0.00017000       0.43687000 </v>
   <v>      -0.12461000       0.00017000      -0.06313000 </v>
   <v>       0.37539000       0.00017000      -0.06313000 </v>
   <v>       0.00013000      -0.07798000      -0.18754000 </v>
   <v>      -0.25013000      -0.07798000       0.06246000 </v>
   <v>      -0.24987000       0.07798000       0.31246000 </v>
   <v>       0.25013000       0.07798000      -0.18754000 </v>
   <v>       0.49987000       0.07798000       0.06246000 </v>
   <v>      -0.00013000       0.07798000      -0.43754000 </v>
   <v>      -0.49987000      -0.07798000       0.31246000 </v>
   <v>       0.24987000      -0.07798000      -0.43754000 </v>
   <v>      -0.00013000      -0.29519000      -0.18718000 </v>
   <v>      -0.24987000      -0.29519000       0.06281000 </v>
   <v>       0.24987000       0.29519000      -0.18718000 </v>
   <v>      -0.25013000       0.29519000       0.31282000 </v>
   <v>      -0.49987000       0.29519000       0.06281000 </v>
   <v>       0.49987000      -0.29519000       0.31282000 </v>
   <v>       0.00013000       0.29519000      -0.43719000 </v>
   <v>       0.25013000      -0.29519000      -0.43719000 </v>
   <v>      -0.00005000       0.32677000      -0.18714000 </v>
   <v>       0.24995000      -0.32677000      -0.18714000 </v>
   <v>      -0.24995000       0.32677000       0.06286000 </v>
   <v>      -0.25005000      -0.32677000       0.31286000 </v>
   <v>      -0.49995000      -0.32677000       0.06286000 </v>
   <v>       0.49995000       0.32677000       0.31286000 </v>
   <v>       0.00005000      -0.32677000      -0.43714000 </v>
   <v>       0.25005000       0.32677000      -0.43714000 </v>
   <v>       0.12461000      -0.00016000      -0.31313000 </v>
   <v>      -0.24987000       0.07798000      -0.18754000 </v>
   <v>      -0.49987000      -0.07798000      -0.18754000 </v>
   <v>      -0.25013000      -0.07798000      -0.43754000 </v>
   <v>       0.49987000       0.07798000      -0.43754000 </v>
   <v>      -0.37461000      -0.00016000       0.43687000 </v>
   <v>      -0.37461000      -0.00016000      -0.06313000 </v>
   <v>       0.37461000       0.00017000      -0.31313000 </v>
   <v>      -0.12539000       0.00017000      -0.31313000 </v>
   <v>      -0.25013000       0.29519000      -0.18718000 </v>
   <v>       0.49987000      -0.29519000      -0.18718000 </v>
   <v>      -0.24987000      -0.29519000      -0.43719000 </v>
   <v>      -0.49987000       0.29519000      -0.43719000 </v>
   <v>      -0.25005000      -0.32677000      -0.18714000 </v>
   <v>       0.49995000       0.32677000      -0.18714000 </v>
   <v>      -0.24995000       0.32677000      -0.43714000 </v>
   <v>      -0.49995000      -0.32677000      -0.43714000 </v>
  </varray>
 </structure>
 <varray name="primitive_index" >
  <v type="int" >        1 </v>
  <v type="int" >       49 </v>
  <v type="int" >       46 </v>
  <v type="int" >       48 </v>
  <v type="int" >       47 </v>
  <v type="int" >        4 </v>
  <v type="int" >        9 </v>
  <v type="int" >        5 </v>
  <v type="int" >       13 </v>
  <v type="int" >       14 </v>
  <v type="int" >       20 </v>
  <v type="int" >       15 </v>
  <v type="int" >       30 </v>
  <v type="int" >       29 </v>
  <v type="int" >       35 </v>
  <v type="int" >       32 </v>
  <v type="int" >        3 </v>
  <v type="int" >       11 </v>
  <v type="int" >        6 </v>
  <v type="int" >       56 </v>
  <v type="int" >       50 </v>
  <v type="int" >       51 </v>
  <v type="int" >       55 </v>
  <v type="int" >       45 </v>
  <v type="int" >       57 </v>
  <v type="int" >       52 </v>
  <v type="int" >       54 </v>
  <v type="int" >       28 </v>
  <v type="int" >       18 </v>
  <v type="int" >       23 </v>
  <v type="int" >       19 </v>
  <v type="int" >       17 </v>
  <v type="int" >       16 </v>
  <v type="int" >       21 </v>
  <v type="int" >       22 </v>
  <v type="int" >       43 </v>
  <v type="int" >       40 </v>
  <v type="int" >       33 </v>
  <v type="int" >       36 </v>
  <v type="int" >       34 </v>
  <v type="int" >       31 </v>
  <v type="int" >       38 </v>
  <v type="int" >       37 </v>
  <v type="int" >       10 </v>
  <v type="int" >       59 </v>
  <v type="int" >       60 </v>
  <v type="int" >       58 </v>
  <v type="int" >       53 </v>
  <v type="int" >        2 </v>
  <v type="int" >        8 </v>
  <v type="int" >        7 </v>
  <v type="int" >       12 </v>
  <v type="int" >       27 </v>
  <v type="int" >       24 </v>
  <v type="int" >       26 </v>
  <v type="int" >       25 </v>
  <v type="int" >       44 </v>
  <v type="int" >       39 </v>
  <v type="int" >       41 </v>
  <v type="int" >       42 </v>
 </varray>
 <kpoints>
  <generation param="Gamma">
   <v type="int" name="divisions">       2        2        2 </v>
   <v name="usershift">      0.00000000       0.00000000       0.00000000 </v>
   <v name="genvec1">      0.50000000       0.00000000       0.00000000 </v>
   <v name="genvec2">      0.00000000       0.50000000       0.00000000 </v>
   <v name="genvec3">      0.00000000       0.00000000       0.50000000 </v>
   <v name="shift">      0.00000000       0.00000000       0.00000000 </v>
  </generation>
  <varray name="kpointlist" >
   <v>       0.00000000       0.00000000       0.00000000 </v>
   <v>       0.50000000       0.00000000       0.00000000 </v>
   <v>       0.00000000       0.50000000       0.00000000 </v>
   <v>       0.50000000       0.50000000       0.00000000 </v>
   <v>       0.00000000       0.00000000       0.50000000 </v>
   <v>       0.50000000       0.00000000       0.50000000 </v>
   <v>       0.00000000       0.50000000       0.50000000 </v>
   <v>       0.50000000       0.50000000       0.50000000 </v>
  </varray>
  <varray name="weights" >
   <v>       0.12500000 </v>
   <v>       0.12500000 </v>
   <v>       0.12500000 </v>
   <v>       0.12500000 </v>
   <v>       0.12500000 </v>
   <v>       0.12500000 </v>
   <v>       0.12500000 </v>
   <v>       0.12500000 </v>
  </varray>
  <varray name="tetrahedronlist"  type="int" >
   <v type="int" >        2        1        2        4        5 </v>
   <v type="int" >        2        1        3        4        5 </v>
   <v type="int" >        2        3        4        5        7 </v>
   <v type="int" >        2        2        4        5        6 </v>
   <v type="int" >        2        4        5        6        8 </v>
   <v type="int" >        2        4        5        7        8 </v>
   <v type="int" >        2        1        2        3        6 </v>
   <v type="int" >        2        2        3        4        6 </v>
   <v type="int" >        2        3        4        6        8 </v>
   <v type="int" >        2        1        3        5        6 </v>
   <v type="int" >        2        3        5        6        7 </v>
   <v type="int" >        2        3        6        7        8 </v>
   <v type="int" >        2        2        3        4        7 </v>
   <v type="int" >        2        1        2        3        7 </v>
   <v type="int" >        2        1        2        5        7 </v>
   <v type="int" >        2        2        4        7        8 </v>
   <v type="int" >        2        2        6        7        8 </v>
   <v type="int" >        2        2        5        6        7 </v>
   <v type="int" >        2        1        3        4        8 </v>
   <v type="int" >        2        1        2        4        8 </v>
   <v type="int" >        2        1        2        6        8 </v>
   <v type="int" >        2        1        3        7        8 </v>
   <v type="int" >        2        1        5        7        8 </v>
   <v type="int" >        2        1        5        6        8 </v>
  </varray>
  <i name="volumeweight">      0.02083333 </i>
 </kpoints>
 <parameters>
  <separator name="general" >
   <i type="string" name="SYSTEM">La2O2S</i>
   <i type="logical" name="LCOMPAT"> F  </i>
  </separator>
  <separator name="electronic" >
   <i type="string" name="PREC">normal</i>
   <i name="ENMAX">    600.00000000</i>
   <i name="ENAUG">    900.00000000</i>
   <i name="EDIFF">      0.00000100</i>
   <i type="int" name="IALGO">    38</i>
   <i type="int" name="IWAVPR">    11</i>
   <i type="int" name="NBANDS">   280</i>
   <i name="NELECT">    464.00000000</i>
   <i type="int" name="TURBO">     0</i>
   <i type="int" name="IRESTART">     0</i>
   <i type="int" name="NREBOOT">     0</i>
   <i type="int" name="NMIN">     0</i>
   <i name="EREF">      0.00000000</i>
   <separator name="electronic smearing" >
    <i type="int" name="ISMEAR">    -5</i>
    <i name="SIGMA">      0.20000000</i>
    <i name="KSPACING">      0.50000000</i>
    <i type="logical" name="KGAMMA"> T  </i>
   </separator>
   <separator name="electronic projectors" >
    <i type="logical" name="LREAL"> F  </i>
    <v name="ROPT">      0.00000000      0.00000000      0.00000000      0.00000000      0.00000000</v>
    <i type="int" name="LMAXPAW">  -100</i>
    <i type="int" name="LMAXMIX">     2</i>
    <i type="logical" name="NLSPLINE"> F  </i>
   </separator>
   <separator name="electronic startup" >
    <i type="int" name="ISTART">     0</i>
    <i type="int" name="ICHARG">     2</i>
    <i type="int" name="INIWAV">     1</i>
   </separator>
   <separator name="electronic spin" >
    <i type="int" name="ISPIN">     1</i>
    <i type="logical" name="LNONCOLLINEAR"> F  </i>
    <v name="MAGMOM">      1.00000000      1.00000000      1.00000000      1.00000000      1.00000000      1.00000000      1.00000000      1.00000000      1.00000000      1.00000000      1.00000000      1.00000000      1.00000000      1.00000000      1.00000000      1.00000000      1.00000000      1.00000000      1.00000000      1.00000000
      1.00000000      1.00000000      1.00000000      1.00000000      1.00000000      1.00000000      1.00000000      1.00000000      1.00000000      1.00000000      1.00000000      1.00000000      1.00000000      1.00000000      1.00000000      1.00000000      1.00000000      1.00000000      1.00000000      1.00000000
      1.00000000      1.00000000      1.00000000      1.00000000      1.00000000      1.00000000      1.00000000      1.00000000      1.00000000      1.00000000      1.00000000      1.00000000      1.00000000      1.00000000      1.00000000      1.00000000      1.00000000      1.00000000      1.00000000      1.00000000
</v>
    <i name="NUPDOWN">     -1.00000000</i>
    <i type="logical" name="LSORBIT"> F  </i>
    <v name="SAXIS">      0.00000000      0.00000000      1.00000000</v>
    <i type="logical" name="LSPIRAL"> F  </i>
    <v name="QSPIRAL">      0.00000000      0.00000000      0.00000000</v>
    <i type="logical" name="LZEROZ"> F  </i>
   </separator>
   <separator name="electronic exchange-correlation" >
    <i type="logical" name="LASPH"> F  </i>
    <i type="logical" name="LMETAGGA"> F  </i>
   </separator>
   <separator name="electronic convergence" >
    <i type="int" name="NELM">    60</i>
    <i type="int" name="NELMDL">    -5</i>
    <i type="int" name="NELMIN">     4</i>
    <i name="ENINI">    600.00000000</i>
    <separator name="electronic convergence detail" >
     <i type="logical" name="LDIAG"> T  </i>
     <i type="logical" name="LSUBROT"> F  </i>
     <i name="WEIMIN">      0.00100000</i>
     <i name="EBREAK">      0.00000000</i>
     <i name="DEPER">      0.30000000</i>
     <i type="int" name="NRMM">     4</i>
     <i name="TIME">      0.40000000</i>
    </separator>
   </separator>
   <separator name="electronic mixer" >
    <i name="AMIX">      0.40000000</i>
    <i name="BMIX">      1.00000000</i>
    <i name="AMIN">      0.10000000</i>
    <i name="AMIX_MAG">      1.60000000</i>
    <i name="BMIX_MAG">      1.00000000</i>
    <separator name="electronic mixer details" >
     <i type="int" name="IMIX">     4</i>
     <i type="logical" name="MIXFIRST"> F  </i>
     <i type="int" name="MAXMIX">   -45</i>
     <i name="WC">    100.00000000</i>
     <i type="int" name="INIMIX">     1</i>
     <i type="int" name="MIXPRE">     1</i>
     <i type="int" name="MREMOVE">     5</i>
    </separator>
   </separator>
   <separator name="electronic dipolcorrection" >
    <i type="logical" name="LDIPOL"> F  </i>
    <i type="logical" name="LMONO"> F  </i>
    <i type="int" name="IDIPOL">     0</i>
    <i name="EPSILON">      1.00000000</i>
    <v name="DIPOL">   -100.00000000   -100.00000000   -100.00000000</v>
    <i name="EFIELD">      0.00000000</i>
   </separator>
  </separator>
  <separator name="grids" >
   <i type="int" name="NGX">    70</i>
   <i type="int" name="NGY">    60</i>
   <i type="int" name="NGZ">    70</i>
   <i type="int" name="NGXF">   140</i>
   <i type="int" name="NGYF">   120</i>
   <i type="int" name="NGZF">   140</i>
   <i type="logical" name="ADDGRID"> F  </i>
  </separator>
  <separator name="ionic" >
   <i type="int" name="NSW">   200</i>
   <i type="int" name="IBRION">     2</i>
   <i type="int" name="MDALGO">     0</i>
   <i type="int" name="ISIF">     3</i>
   <i name="PSTRESS">      0.00000000</i>
   <i name="EDIFFG">     -0.01000000</i>
   <i type="int" name="NFREE">    10</i>
   <i name="POTIM">      0.50000000</i>
   <i name="SMASS">     -3.00000000</i>
   <i name="SCALEE">      1.00000000</i>
  </separator>
  <separator name="ionic md" >
   <i name="TEBEG">      0.00010000</i>
   <i name="TEEND">      0.00010000</i>
   <i type="int" name="NBLOCK">     1</i>
   <i type="int" name="KBLOCK">   200</i>
   <i type="int" name="NPACO">   256</i>
   <i name="APACO">     16.00000000</i>
  </separator>
  <separator name="symmetry" >
   <i type="int" name="ISYM">     2</i>
   <i name="SYMPREC">      0.00001000</i>
  </separator>
  <separator name="dos" >
   <i type="int" name="LORBIT">     0</i>
   <v name="RWIGS">     -1.00000000     -1.00000000     -1.00000000     -1.00000000     -1.00000000</v>
   <i type="int" name="NEDOS">   301</i>
   <i name="EMIN">     10.00000000</i>
   <i name="EMAX">    -10.00000000</i>
   <i name="EFERMI">      0.00000000</i>
  </separator>
  <separator name="writing" >
   <i type="int" name="NWRITE">     2</i>
   <i type="logical" name="LWAVE"> F  </i>
   <i type="logical" name="LDOWNSAMPLE"> F  </i>
   <i type="logical" name="LCHARG"> F  </i>
   <i type="logical" name="LPARD"> F  </i>
   <i type="logical" name="LVTOT"> F  </i>
   <i type="logical" name="LVHAR"> F  </i>
   <i type="logical" name="LELF"> F  </i>
   <i type="logical" name="LOPTICS"> F  </i>
   <v name="STM">      0.00000000      0.00000000      0.00000000      0.00000000      0.00000000      0.00000000      0.00000000</v>
  </separator>
  <separator name="performance" >
   <i type="int" name="NPAR">    28</i>
   <i type="int" name="NSIM">     4</i>
   <i type="int" name="NBLK">    -1</i>
   <i type="logical" name="LPLANE"> T  </i>
   <i type="logical" name="LSCALAPACK"> T  </i>
   <i type="logical" name="LSCAAWARE"> F  </i>
   <i type="logical" name="LSCALU"> F  </i>
   <i type="logical" name="LASYNC"> F  </i>
   <i type="logical" name="LORBITALREAL"> F  </i>
  </separator>
  <separator name="miscellaneous" >
   <i type="int" name="IDIOT">     3</i>
   <i type="int" name="ISPECIAL">     0</i>
   <i type="logical" name="LMUSIC"> F  </i>
   <v name="POMASS">      7.01000000     24.30500000    208.98000000     32.06600000     16.00000000</v>
   <v name="DARWINR">      0.00000000      0.00000000      0.00000000      0.00000000      0.00000000</v>
   <v name="DARWINV">      1.00000000      1.00000000      1.00000000      1.00000000      1.00000000</v>
   <i type="logical" name="LCORR"> T  </i>
  </separator>
  <i type="logical" name="GGA_COMPAT"> T  </i>
  <i type="logical" name="LBERRY"> F  </i>
  <i type="int" name="ICORELEVEL">     0</i>
  <i type="logical" name="LDAU"> F  </i>
  <i type="int" name="I_CONSTRAINED_M">     0</i>
  <separator name="electronic exchange-correlation" >
   <i type="string" name="GGA">--</i>
   <i type="int" name="VOSKOWN">     0</i>
   <i type="logical" name="LHFCALC"> F  </i>
   <i type="string" name="PRECFOCK"></i>
   <i type="logical" name="LSYMGRAD"> F  </i>
   <i type="logical" name="LHFONE"> F  </i>
   <i type="logical" name="LRHFCALC"> F  </i>
   <i type="logical" name="LTHOMAS"> F  </i>
   <i type="logical" name="LMODELHF"> F  </i>
   <i name="ENCUT4O">     -1.00000000</i>
   <i type="int" name="EXXOEP">     0</i>
   <i type="int" name="FOURORBIT">     0</i>
   <i name="AEXX">      0.00000000</i>
   <i name="HFALPHA">      0.00000000</i>
   <i name="MCALPHA">      0.00000000</i>
   <i name="ALDAX">      1.00000000</i>
   <i name="AGGAX">      1.00000000</i>
   <i name="ALDAC">      1.00000000</i>
   <i name="AGGAC">      1.00000000</i>
   <i type="int" name="NKREDX">     1</i>
   <i type="int" name="NKREDY">     1</i>
   <i type="int" name="NKREDZ">     1</i>
   <i type="logical" name="SHIFTRED"> F  </i>
   <i type="logical" name="ODDONLY"> F  </i>
   <i type="logical" name="EVENONLY"> F  </i>
   <i type="int" name="LMAXFOCK">     0</i>
   <i type="int" name="NMAXFOCKAE">     0</i>
   <i type="logical" name="LFOCKAEDFT"> F  </i>
   <i name="HFSCREEN">      0.00000000</i>
   <i name="HFSCREENC">      0.00000000</i>
   <i type="int" name="NBANDSGWLOW">     0</i>
  </separator>
  <separator name="vdW DFT" >
   <i type="logical" name="LUSE_VDW"> F  </i>
   <i name="Zab_VDW">     -0.84910000</i>
   <i name="PARAM1">      0.12340000</i>
   <i name="PARAM2">      1.00000000</i>
   <i name="PARAM3">      0.00000000</i>
  </separator>
  <separator name="model GW" >
   <i type="int" name="MODEL_GW">     0</i>
   <i name="MODEL_EPS0">     11.96848538</i>
   <i name="MODEL_ALPHA">      1.00000000</i>
  </separator>
  <separator name="linear response parameters" >
   <i type="logical" name="LEPSILON"> F  </i>
   <i type="logical" name="LRPA"> F  </i>
   <i type="logical" name="LNABLA"> F  </i>
   <i type="logical" name="LVEL"> F  </i>
   <i type="int" name="KINTER">     0</i>
   <i name="CSHIFT">      0.10000000</i>
   <i name="OMEGAMAX">     -1.00000000</i>
   <i name="DEG_THRESHOLD">      0.00200000</i>
   <i name="RTIME">     -0.10000000</i>
   <i name="WPLASMAI">      0.00000000</i>
   <v name="DFIELD">      0.00000000      0.00000000      0.00000000</v>
   <v name="WPLASMA">      0.00000000      0.00000000      0.00000000      0.00000000      0.00000000      0.00000000      0.00000000      0.00000000      0.00000000</v>
  </separator>
  <separator name="orbital magnetization" >
   <i type="logical" name="NUCIND"> F  </i>
   <v name="MAGPOS">      0.00000000      0.00000000      0.00000000</v>
   <i type="logical" name="LNICSALL"> T  </i>
   <i type="logical" name="ORBITALMAG"> F  </i>
   <i type="logical" name="LMAGBLOCH"> F  </i>
   <i type="logical" name="LCHIMAG"> F  </i>
   <i type="logical" name="LGAUGE"> T  </i>
   <i type="int" name="MAGATOM">     0</i>
   <v name="MAGDIPOL">      0.00000000      0.00000000      0.00000000</v>
   <v name="AVECCONST">      0.00000000      0.00000000      0.00000000</v>
  </separator>
  <separator name="response functions" >
   <i type="logical" name="LADDER"> F  </i>
   <i type="logical" name="LRPAFORCE"> F  </i>
   <i type="logical" name="LFXC"> F  </i>
   <i type="logical" name="LHARTREE"> T  </i>
   <i type="int" name="IBSE">     0</i>
   <v type="int" name="KPOINT">    -1     0     0     0</v>
   <i type="logical" name="LTCTE"> F  </i>
   <i type="logical" name="LTETE"> F  </i>
   <i type="logical" name="LTRIPLET"> F  </i>
   <i type="logical" name="LFXCEPS"> F  </i>
   <i type="logical" name="LFXHEG"> F  </i>
   <i type="int" name="NATURALO">     2</i>
   <i type="logical" name="L2ORDER"> F  </i>
   <i type="logical" name="LMP2LT"> F  </i>
   <i type="logical" name="LUSEW"> F  </i>
   <i name="ENCUTGW">     -2.00000000</i>
   <i name="ENCUTGWSOFT">     -2.00000000</i>
   <i name="ENCUTLF">     -1.00000000</i>
   <i type="int" name="LMAXMP2">    -1</i>
   <i name="SCISSOR">      0.00000000</i>
   <i type="int" name="NOMEGA">     0</i>
   <i type="int" name="NOMEGAR">     0</i>
   <i type="int" name="NBANDSGW">    -1</i>
   <i type="int" name="NBANDSO">    -1</i>
   <i type="int" name="NBANDSV">    -1</i>
   <i type="int" name="NELM">     1</i>
   <i type="int" name="NELMHF">     1</i>
   <i type="int" name="DIM">     3</i>
   <i type="int" name="ANTIRES">     0</i>
   <i name="OMEGAMAX">    -30.00000000</i>
   <i name="OMEGAMIN">    -30.00000000</i>
   <i name="OMEGATL">   -200.00000000</i>
   <i type="int" name="OMEGAGRID">   140</i>
   <i name="CSHIFT">     -0.10000000</i>
   <i type="logical" name="SELFENERGY"> F  </i>
   <i type="logical" name="LSPECTRAL"> F  </i>
   <i type="logical" name="LSPECTRALGW"> F  </i>
   <i type="logical" name="LSINGLES"> F  </i>
   <i type="logical" name="LFERMIGW"> F  </i>
   <i type="logical" name="ODDONLYGW"> F  </i>
   <i type="logical" name="EVENONLYGW"> F  </i>
   <i type="int" name="NKREDLFX">     1</i>
   <i type="int" name="NKREDLFY">     1</i>
   <i type="int" name="NKREDLFZ">     1</i>
   <i type="int" name="MAXMEM">  2800</i>
   <i type="int" name="TELESCOPE">     0</i>
   <i type="int" name="TAUPAR">     1</i>
   <i type="int" name="OMEGAPAR">    -1</i>
   <i name="LAMBDA">      1.00000000</i>
  </separator>
  <separator name="External order field" >
   <i name="OFIELD_KAPPA">      0.00000000</i>
   <v name="OFIELD_K">      0.00000000      0.00000000      0.00000000</v>
   <i name="OFIELD_Q6_NEAR">      0.00000000</i>
   <i name="OFIELD_Q6_FAR">      0.00000000</i>
   <i name="OFIELD_A">      0.00000000</i>
  </separator>
 </parameters>
 <atominfo>
  <atoms>      60 </atoms>
  <types>       5 </types>
  <array name="atoms" >
   <dimension dim="1">ion</dimension>
   <field type="string">element</field>
   <field type="int">atomtype</field>
   <set>
    <rc><c>Li</c><c>   1</c></rc>
    <rc><c>Li</c><c>   1</c></rc>
    <rc><c>Li</c><c>   1</c></rc>
    <rc><c>Li</c><c>   1</c></rc>
    <rc><c>Li</c><c>   1</c></rc>
    <rc><c>Li</c><c>   1</c></rc>
    <rc><c>Li</c><c>   1</c></rc>
    <rc><c>Li</c><c>   1</c></rc>
    <rc><c>Mg</c><c>   2</c></rc>
    <rc><c>Mg</c><c>   2</c></rc>
    <rc><c>Mg</c><c>   2</c></rc>
    <rc><c>Mg</c><c>   2</c></rc>
    <rc><c>Bi</c><c>   3</c></rc>
    <rc><c>Bi</c><c>   3</c></rc>
    <rc><c>Bi</c><c>   3</c></rc>
    <rc><c>Bi</c><c>   3</c></rc>
    <rc><c>Bi</c><c>   3</c></rc>
    <rc><c>Bi</c><c>   3</c></rc>
    <rc><c>Bi</c><c>   3</c></rc>
    <rc><c>Bi</c><c>   3</c></rc>
    <rc><c>Bi</c><c>   3</c></rc>
    <rc><c>Bi</c><c>   3</c></rc>
    <rc><c>Bi</c><c>   3</c></rc>
    <rc><c>Bi</c><c>   3</c></rc>
    <rc><c>Bi</c><c>   3</c></rc>
    <rc><c>Bi</c><c>   3</c></rc>
    <rc><c>Bi</c><c>   3</c></rc>
    <rc><c>Bi</c><c>   3</c></rc>
    <rc><c>S </c><c>   4</c></rc>
    <rc><c>S </c><c>   4</c></rc>
    <rc><c>S </c><c>   4</c></rc>
    <rc><c>S </c><c>   4</c></rc>
    <rc><c>S </c><c>   4</c></rc>
    <rc><c>S </c><c>   4</c></rc>
    <rc><c>S </c><c>   4</c></rc>
    <rc><c>S </c><c>   4</c></rc>
    <rc><c>S </c><c>   4</c></rc>
    <rc><c>S </c><c>   4</c></rc>
    <rc><c>S </c><c>   4</c></rc>
    <rc><c>S </c><c>   4</c></rc>
    <rc><c>S </c><c>   4</c></rc>
    <rc><c>S </c><c>   4</c></rc>
    <rc><c>S </c><c>   4</c></rc>
    <rc><c>S </c><c>   4</c></rc>
    <rc><c>O </c><c>   5</c></rc>
    <rc><c>O </c><c>   5</c></rc>
    <rc><c>O </c><c>   5</c></rc>
    <rc><c>O </c><c>   5</c></rc>
    <rc><c>O </c><c>   5</c></rc>
    <rc><c>O </c><c>   5</c></rc>
    <rc><c>O </c><c>   5</c></rc>
    <rc><c>O </c><c>   5</c></rc>
    <rc><c>O </c><c>   5</c></rc>
    <rc><c>O </c><c>   5</c></rc>
    <rc><c>O </c><c>   5</c></rc>
    <rc><c>O </c><c>   5</c></rc>
    <rc><c>O </c><c>   5</c></rc>
    <rc><c>O </c><c>   5</c></rc>
    <rc><c>O </c><c>   5</c></rc>
    <rc><c>O </c><c>   5</c></rc>
   </set>
  </array>
  <array name="atomtypes" >
   <dimension dim="1">type</dimension>
   <field type="int">atomspertype</field>
   <field type="string">element</field>
   <field>mass</field>
   <field>valence</field>
   <field type="string">pseudopotential</field>
   <set>
    <rc><c>   8</c><c>Li</c><c>      7.01000000</c><c>      3.00000000</c><c>  PAW_PBE Li_sv 10Sep2004               </c></rc>
    <rc><c>   4</c><c>Mg</c><c>     24.30500000</c><c>      2.00000000</c><c>  PAW_PBE Mg 13Apr2007                  </c></rc>
    <rc><c>  16</c><c>Bi</c><c>    208.98000000</c><c>     15.00000000</c><c>  PAW_PBE Bi_d 06Sep2000                </c></rc>
    <rc><c>  16</c><c>S </c><c>     32.06600000</c><c>      6.00000000</c><c>  PAW_PBE S 06Sep2000                   </c></rc>
    <rc><c>  16</c><c>O </c><c>     16.00000000</c><c>      6.00000000</c><c>  PAW_PBE O 08Apr2002                   </c></rc>
   </set>
  </array>
 </atominfo>
 <structure name="initialpos" >
  <crystal>
   <varray name="basis" >
    <v>      11.17850000       0.00000000       0.00000000 </v>
    <v>       0.00000000       9.57460000       0.00000000 </v>
    <v>       0.00000000       0.00000000      11.18240000 </v>
   </varray>
   <i name="volume">   1196.84853820 </i>
   <varray name="rec_basis" >
    <v>       0.08945744       0.00000000       0.00000000 </v>
    <v>       0.00000000       0.10444301       0.00000000 </v>
    <v>       0.00000000       0.00000000       0.08942624 </v>
   </varray>
  </crystal>
  <varray name="positions" >
   <v>       0.12461000       0.99984000       0.18687000 </v>
   <v>       0.62539000       0.99984000       0.43687000 </v>
   <v>       0.87539000       0.00017000       0.43687000 </v>
   <v>       0.87461000       0.00017000       0.18687000 </v>
   <v>       0.12539000       0.99984000       0.93687000 </v>
   <v>       0.37539000       0.00017000       0.93687000 </v>
   <v>       0.37461000       0.00017000       0.68687000 </v>
   <v>       0.62539000       0.99984000       0.93687000 </v>
   <v>       0.37461000       0.00017000       0.18687000 </v>
   <v>       0.12461000       0.99984000       0.68687000 </v>
   <v>       0.87539000       0.00017000       0.93687000 </v>
   <v>       0.87461000       0.00017000       0.68687000 </v>
   <v>       0.00013000       0.29519000       0.06281000 </v>
   <v>       0.25013000       0.70481000       0.06281000 </v>
   <v>       0.24987000       0.29519000       0.31282000 </v>
   <v>       0.49987000       0.70481000       0.31282000 </v>
   <v>       0.50013000       0.29519000       0.06281000 </v>
   <v>       0.75013000       0.70481000       0.06281000 </v>
   <v>       0.74987000       0.29519000       0.31282000 </v>
   <v>       0.99987000       0.70481000       0.31282000 </v>
   <v>       0.00013000       0.29519000       0.56281000 </v>
   <v>       0.25013000       0.70481000       0.56281000 </v>
   <v>       0.24987000       0.29519000       0.81282000 </v>
   <v>       0.49987000       0.70481000       0.81282000 </v>
   <v>       0.50013000       0.29519000       0.56281000 </v>
   <v>       0.75013000       0.70481000       0.56281000 </v>
   <v>       0.74987000       0.29519000       0.81282000 </v>
   <v>       0.99987000       0.70481000       0.81282000 </v>
   <v>       0.25005000       0.32677000       0.06286000 </v>
   <v>       0.00005000       0.67323000       0.06286000 </v>
   <v>       0.49995000       0.32677000       0.31286000 </v>
   <v>       0.24995000       0.67323000       0.31286000 </v>
   <v>       0.75005000       0.32677000       0.06286000 </v>
   <v>       0.50005000       0.67323000       0.06286000 </v>
   <v>       0.99995000       0.32677000       0.31286000 </v>
   <v>       0.74995000       0.67323000       0.31286000 </v>
   <v>       0.25005000       0.32677000       0.56286000 </v>
   <v>       0.00005000       0.67323000       0.56286000 </v>
   <v>       0.49995000       0.32677000       0.81286000 </v>
   <v>       0.24995000       0.67323000       0.81286000 </v>
   <v>       0.75005000       0.32677000       0.56286000 </v>
   <v>       0.50005000       0.67323000       0.56286000 </v>
   <v>       0.99995000       0.32677000       0.81286000 </v>
   <v>       0.74995000       0.67323000       0.81286000 </v>
   <v>       0.49987000       0.07798000       0.06246000 </v>
   <v>       0.24987000       0.92202000       0.06246000 </v>
   <v>       0.25013000       0.07798000       0.31246000 </v>
   <v>       0.00013000       0.92202000       0.31246000 </v>
   <v>       0.99987000       0.07798000       0.06246000 </v>
   <v>       0.74987000       0.92202000       0.06246000 </v>
   <v>       0.75013000       0.07798000       0.31246000 </v>
   <v>       0.50013000       0.92202000       0.31246000 </v>
   <v>       0.49987000       0.07798000       0.56246000 </v>
   <v>       0.24987000       0.92202000       0.56246000 </v>
   <v>       0.25013000       0.07798000       0.81246000 </v>
   <v>       0.00013000       0.92202000       0.81246000 </v>
   <v>       0.99987000       0.07798000       0.56246000 </v>
   <v>       0.74987000       0.92202000       0.56246000 </v>
   <v>       0.75013000       0.07798000       0.81246000 </v>
   <v>       0.50013000       0.92202000       0.81246000 </v>
  </varray>
 </structure>
 <calculation>
  <scstep>
   <time name="dav">   60.55   60.87</time>
   <time name="total">   60.63   60.96</time>
   <energy>
    <i name="alphaZ">   1067.11773629 </i>
    <i name="ewald"> -30650.35313040 </i>
    <i name="hartreedc"> -12702.78470723 </i>
    <i name="XCdc">   1321.15981326 </i>
    <i name="pawpsdc">  36729.48549953 </i>
    <i name="pawaedc"> -36149.63912807 </i>
    <i name="eentropy">      0.00000000 </i>
    <i name="bandstr">   1840.03138423 </i>
    <i name="atom">  44408.54722957 </i>
    <i name="e_fr_energy">   5863.56469717 </i>
    <i name="e_wo_entrp">   5863.56469717 </i>
    <i name="e_0_energy">   5863.56469717 </i>
   </energy>
  </scstep>
  <scstep>
   <time name="dav">   61.70   61.74</time>
   <time name="total">   61.70   61.75</time>
   <energy>
    <i name="e_fr_energy">    772.76274630 </i>
    <i name="e_wo_entrp">    772.76274630 </i>
    <i name="e_0_energy">    772.76274630 </i>
   </energy>
  </scstep>
  <scstep>
   <time name="dav">   70.35   70.42</time>
   <time name="total">   70.35   70.42</time>
   <energy>
    <i name="e_fr_energy">   -243.50221719 </i>
    <i name="e_wo_entrp">   -243.50221719 </i>
    <i name="e_0_energy">   -243.50221719 </i>
   </energy>
  </scstep>
  <scstep>
   <time name="dav">   73.13   73.28</time>
   <time name="total">   73.14   73.28</time>
   <energy>
    <i name="e_fr_energy">   -339.78961514 </i>
    <i name="e_wo_entrp">   -339.78961514 </i>
    <i name="e_0_energy">   -339.78961514 </i>
   </energy>
  </scstep>
  <scstep>
   <time name="dav">   96.60   96.89</time>
   <time name="total">   97.32   97.62</time>
   <energy>
    <i name="e_fr_energy">   -347.88448702 </i>
    <i name="e_wo_entrp">   -347.88448702 </i>
    <i name="e_0_energy">   -347.88448702 </i>
   </energy>
  </scstep>
  <scstep>
   <time name="dav">   86.55   86.85</time>
   <time name="total">   87.35   87.68</time>
   <energy>
    <i name="e_fr_energy">   -290.38672303 </i>
    <i name="e_wo_entrp">   -290.38672303 </i>
    <i name="e_0_energy">   -290.38672303 </i>
   </energy>
  </scstep>
  <scstep>
   <time name="dav">   65.68   66.04</time>
   <time name="total">   66.48   66.84</time>
   <energy>
    <i name="e_fr_energy">   -292.67221766 </i>
    <i name="e_wo_entrp">   -292.67221766 </i>
    <i name="e_0_energy">   -292.67221766 </i>
   </energy>
  </scstep>
  <scstep>
   <time name="dav">   77.99   78.09</time>
   <time name="total">   78.79   78.94</time>
   <energy>
    <i name="e_fr_energy">   -291.45294061 </i>
    <i name="e_wo_entrp">   -291.45294061 </i>
    <i name="e_0_energy">   -291.45294061 </i>
   </energy>
  </scstep>
  <scstep>
   <time name="dav">   70.82   70.93</time>
   <time name="total">   71.62   71.74</time>
   <energy>
    <i name="e_fr_energy">   -290.83547118 </i>
    <i name="e_wo_entrp">   -290.83547118 </i>
    <i name="e_0_energy">   -290.83547118 </i>
   </energy>
  </scstep>
  <scstep>
   <time name="dav">   74.86   75.23</time>
   <time name="total">   75.65   76.03</time>
   <energy>
    <i name="e_fr_energy">   -290.87793406 </i>
    <i name="e_wo_entrp">   -290.87793406 </i>
    <i name="e_0_energy">   -290.87793406 </i>
   </energy>
  </scstep>
  <scstep>
   <time name="dav">   82.25   82.26</time>
   <time name="total">   83.05   83.06</time>
   <energy>
    <i name="e_fr_energy">   -290.88041494 </i>
    <i name="e_wo_entrp">   -290.88041494 </i>
    <i name="e_0_energy">   -290.88041494 </i>
   </energy>
  </scstep>
  <scstep>
   <time name="dav">   80.81   80.82</time>
   <time name="total">   81.61   81.61</time>
   <energy>
    <i name="e_fr_energy">   -290.88392834 </i>
    <i name="e_wo_entrp">   -290.88392834 </i>
    <i name="e_0_energy">   -290.88392834 </i>
   </energy>
  </scstep>
  <scstep>
   <time name="dav">   73.06   73.07</time>
   <time name="total">   73.86   73.87</time>
   <energy>
    <i name="e_fr_energy">   -290.88504946 </i>
    <i name="e_wo_entrp">   -290.88504946 </i>
    <i name="e_0_energy">   -290.88504946 </i>
   </energy>
  </scstep>
  <scstep>
   <time name="dav">   80.55   80.56</time>
   <time name="total">   81.34   81.36</time>
   <energy>
    <i name="e_fr_energy">   -290.88519451 </i>
    <i name="e_wo_entrp">   -290.88519451 </i>
    <i name="e_0_energy">   -290.88519451 </i>
   </energy>
  </scstep>
  <scstep>
   <time name="dav">   78.92   79.10</time>
   <time name="total">   79.71   79.90</time>
   <energy>
    <i name="e_fr_energy">   -290.88524665 </i>
    <i name="e_wo_entrp">   -290.88524665 </i>
    <i name="e_0_energy">   -290.88524665 </i>
   </energy>
  </scstep>
  <scstep>
   <time name="dav">   69.81   69.89</time>
   <time name="total">   70.57   70.69</time>
   <energy>
    <i name="e_fr_energy">   -290.88528197 </i>
    <i name="e_wo_entrp">   -290.88528197 </i>
    <i name="e_0_energy">   -290.88528197 </i>
   </energy>
  </scstep>
  <scstep>
   <time name="dav">   66.80   67.25</time>
   <time name="total">   67.59   68.04</time>
   <energy>
    <i name="e_fr_energy">   -290.88528423 </i>
    <i name="e_wo_entrp">   -290.88528423 </i>
    <i name="e_0_energy">   -290.88528423 </i>
   </energy>
  </scstep>
  <scstep>
   <time name="dav">   69.05   69.60</time>
   <time name="total">   69.84   70.40</time>
   <energy>
    <i name="e_fr_energy">   -290.88528523 </i>
    <i name="e_wo_entrp">   -290.88528523 </i>
    <i name="e_0_energy">   -290.88528523 </i>
   </energy>
  </scstep>
  <scstep>
   <time name="dav">   58.70   59.20</time>
   <time name="total">   59.49   59.99</time>
   <energy>
    <i name="e_fr_energy">   -290.88528631 </i>
    <i name="e_wo_entrp">   -290.88528631 </i>
    <i name="e_0_energy">   -290.88528631 </i>
   </energy>
  </scstep>
  <scstep>
   <time name="dav">   44.05   44.40</time>
   <time name="total">   44.12   44.47</time>
   <energy>
    <i name="alphaZ">   1067.11773629 </i>
    <i name="ewald"> -30650.35313040 </i>
    <i name="hartreedc"> -12931.62542299 </i>
    <i name="XCdc">   1344.89272425 </i>
    <i name="pawpsdc">  43743.77414160 </i>
    <i name="pawaedc"> -43138.33034399 </i>
    <i name="eentropy">      0.00000000 </i>
    <i name="bandstr">  -4134.90822052 </i>
    <i name="atom">  44408.54722957 </i>
    <i name="e_fr_energy">   -290.88528619 </i>
    <i name="e_wo_entrp">   -290.88528619 </i>
    <i name="e_0_energy">   -290.88528619 </i>
   </energy>
  </scstep>
  <structure>
   <crystal>
    <varray name="basis" >
     <v>      11.17850000       0.00000000       0.00000000 </v>
     <v>       0.00000000       9.57460000       0.00000000 </v>
     <v>       0.00000000       0.00000000      11.18240000 </v>
    </varray>
    <i name="volume">   1196.84853820 </i>
    <varray name="rec_basis" >
     <v>       0.08945744       0.00000000       0.00000000 </v>
     <v>       0.00000000       0.10444301       0.00000000 </v>
     <v>       0.00000000       0.00000000       0.08942624 </v>
    </varray>
   </crystal>
   <varray name="positions" >
    <v>       0.12461000       0.99984000       0.18687000 </v>
    <v>       0.62539000       0.99984000       0.43687000 </v>
    <v>       0.87539000       0.00017000       0.43687000 </v>
    <v>       0.87461000       0.00017000       0.18687000 </v>
    <v>       0.12539000       0.99984000       0.93687000 </v>
    <v>       0.37539000       0.00017000       0.93687000 </v>
    <v>       0.37461000       0.00017000       0.68687000 </v>
    <v>       0.62539000       0.99984000       0.93687000 </v>
    <v>       0.37461000       0.00017000       0.18687000 </v>
    <v>       0.12461000       0.99984000       0.68687000 </v>
    <v>       0.87539000       0.00017000       0.93687000 </v>
    <v>       0.87461000       0.00017000       0.68687000 </v>
    <v>       0.00013000       0.29519000       0.06281000 </v>
    <v>       0.25013000       0.70481000       0.06281000 </v>
    <v>       0.24987000       0.29519000       0.31282000 </v>
    <v>       0.49987000       0.70481000       0.31282000 </v>
    <v>       0.50013000       0.29519000       0.06281000 </v>
    <v>       0.75013000       0.70481000       0.06281000 </v>
    <v>       0.74987000       0.29519000       0.31282000 </v>
    <v>       0.99987000       0.70481000       0.31282000 </v>
    <v>       0.00013000       0.29519000       0.56281000 </v>
    <v>       0.25013000       0.70481000       0.56281000 </v>
    <v>       0.24987000       0.29519000       0.81282000 </v>
    <v>       0.49987000       0.70481000       0.81282000 </v>
    <v>       0.50013000       0.29519000       0.56281000 </v>
    <v>       0.75013000       0.70481000       0.56281000 </v>
    <v>       0.74987000       0.29519000       0.81282000 </v>
    <v>       0.99987000       0.70481000       0.81282000 </v>
    <v>       0.25005000       0.32677000       0.06286000 </v>
    <v>       0.00005000       0.67323000       0.06286000 </v>
    <v>       0.49995000       0.32677000       0.31286000 </v>
    <v>       0.24995000       0.67323000       0.31286000 </v>
    <v>       0.75005000       0.32677000       0.06286000 </v>
    <v>       0.50005000       0.67323000       0.06286000 </v>
    <v>       0.99995000       0.32677000       0.31286000 </v>
    <v>       0.74995000       0.67323000       0.31286000 </v>
    <v>       0.25005000       0.32677000       0.56286000 </v>
    <v>       0.00005000       0.67323000       0.56286000 </v>
    <v>       0.49995000       0.32677000       0.81286000 </v>
    <v>       0.24995000       0.67323000       0.81286000 </v>
    <v>       0.75005000       0.32677000       0.56286000 </v>
    <v>       0.50005000       0.67323000       0.56286000 </v>
    <v>       0.99995000       0.32677000       0.81286000 </v>
    <v>       0.74995000       0.67323000       0.81286000 </v>
    <v>       0.49987000       0.07798000       0.06246000 </v>
    <v>       0.24987000       0.92202000       0.06246000 </v>
    <v>       0.25013000       0.07798000       0.31246000 </v>
    <v>       0.00013000       0.92202000       0.31246000 </v>
    <v>       0.99987000       0.07798000       0.06246000 </v>
    <v>       0.74987000       0.92202000       0.06246000 </v>
    <v>       0.75013000       0.07798000       0.31246000 </v>
    <v>       0.50013000       0.92202000       0.31246000 </v>
    <v>       0.49987000       0.07798000       0.56246000 </v>
    <v>       0.24987000       0.92202000       0.56246000 </v>
    <v>       0.25013000       0.07798000       0.81246000 </v>
    <v>       0.00013000       0.92202000       0.81246000 </v>
    <v>       0.99987000       0.07798000       0.56246000 </v>
    <v>       0.74987000       0.92202000       0.56246000 </v>
    <v>       0.75013000       0.07798000       0.81246000 </v>
    <v>       0.50013000       0.92202000       0.81246000 </v>
   </varray>
  </structure>
  <varray name="forces" >
   <v>      -0.14580239      -0.01143572       0.85979154 </v>
   <v>      -0.56871015       0.12422820      -0.06517662 </v>
   <v>       0.01874601      -0.07487524      -0.60141220 </v>
   <v>      -0.39665323      -0.06900200       0.75211750 </v>
   <v>       0.56997085       0.12011255       0.54975902 </v>
   <v>       0.49633796      -0.06665201      -0.33538611 </v>
   <v>       0.86998400      -0.07917566      -0.73306708 </v>
   <v>      -0.58404397      -0.13438463       0.06259985 </v>
   <v>       0.93183889       0.11920757       1.41221551 </v>
   <v>       1.56762090       0.00506439      -1.56683726 </v>
   <v>      -0.78895324       0.09682086       1.30456841 </v>
   <v>      -1.89597055       0.09055591      -1.39042766 </v>
   <v>       0.04157506       1.14628373       0.61653616 </v>
   <v>       0.25802761      -1.05480110       0.30568555 </v>
   <v>       0.22737277      -1.01145795       0.46648125 </v>
   <v>       0.06686456       1.09402764       0.26419308 </v>
   <v>       0.19374036      -0.00049985       0.34424408 </v>
   <v>      -0.50405133      -0.08955612       0.61443363 </v>
   <v>      -0.36748226      -0.99039233      -0.00112878 </v>
   <v>       0.10482402       0.93618612       0.18900347 </v>
   <v>       0.16775127       1.17453708      -0.79437782 </v>
   <v>       0.49905669       0.90843198      -0.62364607 </v>
   <v>       0.61575989       1.13627430      -0.15975459 </v>
   <v>       0.07239847       0.91511953      -0.36000464 </v>
   <v>      -0.05449589      -1.94607793      -0.24411890 </v>
   <v>      -0.65071226      -0.05150485      -0.34399071 </v>
   <v>      -0.80335757       1.15958291      -0.29766596 </v>
   <v>       0.13029148      -3.02658164      -0.04223279 </v>
   <v>      -0.21325147       0.14099440      -0.28731356 </v>
   <v>       0.02374705      -0.03509872      -0.47747860 </v>
   <v>      -0.03446543       0.24190860      -0.34489770 </v>
   <v>      -0.11372877      -0.16947747      -0.34769990 </v>
   <v>       0.31289137       0.06825032      -0.37535483 </v>
   <v>      -0.13742333      -0.17731410      -0.11300542 </v>
   <v>      -0.01232617       0.18610037      -0.12049407 </v>
   <v>       0.16047067      -0.24506019      -0.06305043 </v>
   <v>      -0.49439238       0.10149960       0.44138925 </v>
   <v>      -0.09941489      -0.01805735       0.57259661 </v>
   <v>      -0.01607098       0.17044335       0.26822932 </v>
   <v>      -0.49397331      -0.09128436       0.18596652 </v>
   <v>       0.50543315       0.14170515       0.39025924 </v>
   <v>       0.10021386      -0.24067280       0.16319755 </v>
   <v>      -0.04763247      -0.15563774       0.02527152 </v>
   <v>       0.54877481       0.02454645       0.06415475 </v>
   <v>      -1.16120803       0.05941608      -0.30575833 </v>
   <v>       0.19849381       0.81185025       0.10513224 </v>
   <v>       0.28660045       0.77354421      -1.83200567 </v>
   <v>      -0.58821846      -0.75677051      -0.71040453 </v>
   <v>      -0.39470118      -1.02006745      -0.99066869 </v>
   <v>       1.32620225       0.22439893      -1.36830699 </v>
   <v>       0.75103901       0.87040447       0.52870505 </v>
   <v>      -0.51702958      -1.10112684      -0.66171947 </v>
   <v>       0.03054319       1.74207351       0.14071070 </v>
   <v>      -0.78790472      -0.61825150       1.90981448 </v>
   <v>      -0.99952350      -0.95484882      -0.24383718 </v>
   <v>      -0.44125422       2.40713369      -0.35244301 </v>
   <v>      -0.61318997      -1.02441870       2.01429138 </v>
   <v>       1.47640454       0.01478109       0.22071109 </v>
   <v>       1.99823096      -1.06367241       0.60075712 </v>
   <v>      -0.62526421      -0.72732724       0.78084970 </v>
  </varray>
  <varray name="stress" >
   <v>      -2.88516127       0.11176844       0.29347135 </v>
   <v>       0.11176850     -13.02052941      -0.30023183 </v>
   <v>       0.29347158      -0.30023169      -5.43484091 </v>
  </varray>
  <energy>
   <i name="e_fr_energy">   -304.49818340 </i>
   <i name="e_wo_entrp">   -304.49818340 </i>
   <i name="e_0_energy">      0.00000000 </i>
  </energy>
  <time name="totalsc"> 1572.22 1578.05</time>
 </calculation>
 <calculation>
  <scstep>
   <time name="dav">   64.25   64.47</time>
   <time name="total">   65.05   65.28</time>
   <energy>
    <i name="alphaZ">   1080.92458338 </i>
    <i name="ewald"> -30765.16291698 </i>
    <i name="hartreedc"> -12989.17472820 </i>
    <i name="XCdc">   1352.49191498 </i>
    <i name="pawpsdc">  43743.80842366 </i>
    <i name="pawaedc"> -43138.36564307 </i>
    <i name="eentropy">      0.00000000 </i>
    <i name="bandstr">  -3983.16148549 </i>
    <i name="atom">  44408.54722957 </i>
    <i name="e_fr_energy">   -290.09262215 </i>
    <i name="e_wo_entrp">   -290.09262215 </i>
    <i name="e_0_energy">   -290.09262215 </i>
   </energy>
  </scstep>
  <scstep>
   <time name="dav">   67.08   67.29</time>
   <time name="total">   67.87   68.09</time>
   <energy>
    <i name="e_fr_energy">   -293.42693996 </i>
    <i name="e_wo_entrp">   -293.42693996 </i>
    <i name="e_0_energy">   -293.42693996 </i>
   </energy>
  </scstep>
  <scstep>
   <time name="dav">   86.59   86.79</time>
   <time name="total">   87.38   87.59</time>
   <energy>
    <i name="e_fr_energy">   -293.21033429 </i>
    <i name="e_wo_entrp">   -293.21033429 </i>
    <i name="e_0_energy">   -293.21033429 </i>
   </energy>
  </scstep>
  <scstep>
   <time name="dav">   75.56   75.78</time>
   <time name="total">   76.38   76.61</time>
   <energy>
    <i name="e_fr_energy">   -293.04256941 </i>
    <i name="e_wo_entrp">   -293.04256941 </i>
    <i name="e_0_energy">   -293.04256941 </i>
   </energy>
  </scstep>
  <scstep>
   <time name="dav">   79.56   80.46</time>
   <time name="total">   80.35   81.27</time>
   <energy>
    <i name="e_fr_energy">   -293.02855651 </i>
    <i name="e_wo_entrp">   -293.02855651 </i>
    <i name="e_0_energy">   -293.02855651 </i>
   </energy>
  </scstep>
  <scstep>
   <time name="dav">   76.97   77.58</time>
   <time name="total">   77.76   78.37</time>
   <energy>
    <i name="e_fr_energy">   -293.02646199 </i>
    <i name="e_wo_entrp">   -293.02646199 </i>
    <i name="e_0_energy">   -293.02646199 </i>
   </energy>
  </scstep>
  <scstep>
   <time name="dav">   69.74   70.35</time>
   <time name="total">   70.53   71.14</time>
   <energy>
    <i name="e_fr_energy">   -293.02481520 </i>
    <i name="e_wo_entrp">   -293.02481520 </i>
    <i name="e_0_energy">   -293.02481520 </i>
   </energy>
  </scstep>
  <scstep>
   <time name="dav">   95.98   96.36</time>
   <time name="total">   96.78   97.15</time>
   <energy>
    <i name="e_fr_energy">   -293.02464883 </i>
    <i name="e_wo_entrp">   -293.02464883 </i>
    <i name="e_0_energy">   -293.02464883 </i>
   </energy>
  </scstep>
  <scstep>
   <time name="dav">   68.80   68.96</time>
   <time name="total">   69.61   69.77</time>
   <energy>
    <i name="e_fr_energy">   -293.02467869 </i>
    <i name="e_wo_entrp">   -293.02467869 </i>
    <i name="e_0_energy">   -293.02467869 </i>
   </energy>
  </scstep>
  <scstep>
   <time name="dav">   81.05   81.06</time>
   <time name="total">   81.85   81.86</time>
   <energy>
    <i name="e_fr_energy">   -293.02468254 </i>
    <i name="e_wo_entrp">   -293.02468254 </i>
    <i name="e_0_energy">   -293.02468254 </i>
   </energy>
  </scstep>
  <scstep>
   <time name="dav">   70.77   70.78</time>
   <time name="total">   71.64   71.65</time>
   <energy>
    <i name="e_fr_energy">   -293.02468458 </i>
    <i name="e_wo_entrp">   -293.02468458 </i>
    <i name="e_0_energy">   -293.02468458 </i>
   </energy>
  </scstep>
  <scstep>
   <time name="dav">   79.57   79.80</time>
   <time name="total">   80.37   80.60</time>
   <energy>
    <i name="e_fr_energy">   -293.02468409 </i>
    <i name="e_wo_entrp">   -293.02468409 </i>
    <i name="e_0_energy">   -293.02468409 </i>
   </energy>
  </scstep>
  <scstep>
   <time name="dav">   58.43   58.46</time>
   <time name="total">   58.50   58.54</time>
   <energy>
    <i name="alphaZ">   1080.92458338 </i>
    <i name="ewald"> -30765.16291698 </i>
    <i name="hartreedc"> -12880.27194249 </i>
    <i name="XCdc">   1347.81237129 </i>
    <i name="pawpsdc">  44088.83175049 </i>
    <i name="pawaedc"> -43486.22847566 </i>
    <i name="eentropy">      0.00000000 </i>
    <i name="bandstr">  -4087.47728354 </i>
    <i name="atom">  44408.54722957 </i>
    <i name="e_fr_energy">   -293.02468394 </i>
    <i name="e_wo_entrp">   -293.02468394 </i>
    <i name="e_0_energy">   -293.02468394 </i>
   </energy>
  </scstep>
  <structure>
   <crystal>
    <varray name="basis" >
     <v>      11.15912855       0.00075043       0.00197042 </v>
     <v>       0.00064276       9.49972138      -0.00172658 </v>
     <v>       0.00197110      -0.00201651      11.14589684 </v>
    </varray>
    <i name="volume">   1181.56097326 </i>
    <varray name="rec_basis" >
     <v>       0.08961274      -0.00000607      -0.00001585 </v>
     <v>      -0.00000708       0.10526625       0.00001905 </v>
     <v>      -0.00001584       0.00001631       0.08971912 </v>
    </varray>
   </crystal>
   <varray name="positions" >
    <v>       0.12398077       0.99978238       0.19057928 </v>
    <v>       0.62293564       0.00046594       0.43658882 </v>
    <v>       0.87547090      -0.00020727       0.43427541 </v>
    <v>       0.87289818      -0.00017767       0.19011475 </v>
    <v>       0.12784980       0.00044520       0.93924175 </v>
    <v>       0.37753203      -0.00016583       0.93542309 </v>
    <v>       0.37836456      -0.00022894       0.68370743 </v>
    <v>       0.62286946       0.99916289       0.93714007 </v>
    <v>       0.37863150       0.00077064       0.19296252 </v>
    <v>       0.13137533       0.99986552       0.68011041 </v>
    <v>       0.87198514       0.00065784       0.94249812 </v>
    <v>       0.86642763       0.00062628       0.68087147 </v>
    <v>       0.00030942       0.30096567       0.06546984 </v>
    <v>       0.25124356       0.69949527       0.06412878 </v>
    <v>       0.25085126       0.29009366       0.31483247 </v>
    <v>       0.50015856       0.71032238       0.31395977 </v>
    <v>       0.50096612       0.29518748       0.06429512 </v>
    <v>       0.74795468       0.70435876       0.06546076 </v>
    <v>       0.74828407       0.29019980       0.31281513 </v>
    <v>       0.00032239       0.70952707       0.31363539 </v>
    <v>       0.00085396       0.30110803       0.55938293 </v>
    <v>       0.25228376       0.70938723       0.56011949 </v>
    <v>       0.25252741       0.30091524       0.81213079 </v>
    <v>       0.50018245       0.70942093       0.81126688 </v>
    <v>       0.49989481       0.28538448       0.56175683 </v>
    <v>       0.74732174       0.70455049       0.56132597 </v>
    <v>       0.74640298       0.30103268       0.81153582 </v>
    <v>       0.00043229       0.68956024       0.81263780 </v>
    <v>       0.24912968       0.32748042       0.06162048 </v>
    <v>       0.00015248       0.67305315       0.06080008 </v>
    <v>       0.49980126       0.32798888       0.31137206 </v>
    <v>       0.24945918       0.67237607       0.31135997 </v>
    <v>       0.75140033       0.32711389       0.06124066 </v>
    <v>       0.49945693       0.67233658       0.06237248 </v>
    <v>       0.99989680       0.32770769       0.31234017 </v>
    <v>       0.75064254       0.67199524       0.31258799 </v>
    <v>       0.24791637       0.32728142       0.56476422 </v>
    <v>      -0.00037904       0.67313902       0.56533027 </v>
    <v>       0.49988064       0.32762880       0.81401718 </v>
    <v>       0.24781818       0.67277005       0.81366229 </v>
    <v>       0.75223128       0.32748400       0.56454364 </v>
    <v>       0.50048249       0.67201734       0.56356406 </v>
    <v>       0.99974443       0.32598580       0.81296903 </v>
    <v>       0.75231833       0.67335368       0.81313677 </v>
    <v>       0.49485862       0.07827937       0.06114091 </v>
    <v>       0.25072663       0.92611059       0.06291356 </v>
    <v>       0.25136687       0.08187759       0.30455644 </v>
    <v>      -0.00240855       0.91820693       0.30939520 </v>
    <v>       0.99816660       0.07284028       0.05818610 </v>
    <v>       0.75559344       0.92315066       0.05655691 </v>
    <v>       0.75337123       0.08236563       0.31474092 </v>
    <v>       0.49789867       0.91647185       0.30960524 </v>
    <v>       0.50000181       0.08675763       0.56306705 </v>
    <v>       0.24646967       0.91890487       0.57069924 </v>
    <v>       0.24581639       0.07316889       0.81140805 </v>
    <v>      -0.00177431       0.93414860       0.81093950 </v>
    <v>       0.99722368       0.07281836       0.57114997 </v>
    <v>       0.75624167       0.92209448       0.56341218 </v>
    <v>       0.75875369       0.07262057       0.81505176 </v>
    <v>       0.49743157       0.91835528       0.81582871 </v>
   </varray>
  </structure>
  <varray name="forces" >
   <v>      -0.07316175      -0.01510721       0.42810026 </v>
   <v>      -0.36693301       0.06276336      -0.03101855 </v>
   <v>       0.14885275      -0.04298803      -0.30930510 </v>
   <v>      -0.24198467      -0.05112486       0.38528934 </v>
   <v>       0.20131046       0.06205551       0.17640479 </v>
   <v>       0.13120002      -0.03726147      -0.16164908 </v>
   <v>       0.58461461      -0.05861818      -0.41392552 </v>
   <v>      -0.31070615      -0.07072802       0.02153210 </v>
   <v>       0.40237276       0.03869555       0.36155232 </v>
   <v>      -0.26081822       0.24806542      -0.06196580 </v>
   <v>       0.36287757       0.09248987      -0.09338625 </v>
   <v>      -0.32500934       0.16142008       0.24477126 </v>
   <v>       0.06335389      -0.14401803       0.05828648 </v>
   <v>       0.06851432       0.09851092       0.05682903 </v>
   <v>       0.07857180       0.93293429       0.26663343 </v>
   <v>       0.04657065      -1.54249625       0.09052941 </v>
   <v>       0.05752097       0.30763834       0.16310704 </v>
   <v>      -0.20862380      -0.06438262       0.23518028 </v>
   <v>      -0.20633838       1.12920310      -0.07606717 </v>
   <v>       0.10197743      -0.93711381       0.11091817 </v>
   <v>       0.05225321      -0.18578716      -0.13877386 </v>
   <v>       0.17638942      -0.74915342      -0.35141919 </v>
   <v>       0.06739914      -0.11743102       0.01243815 </v>
   <v>       0.06306231      -0.88640714      -0.13833481 </v>
   <v>      -0.01665109       2.71523729      -0.10415488 </v>
   <v>      -0.21855668      -0.33707604      -0.05449242 </v>
   <v>      -0.16025462      -0.19702441      -0.13451955 </v>
   <v>       0.04811902       0.08882214      -0.03475761 </v>
   <v>      -0.08728126       0.24705585      -0.09613578 </v>
   <v>      -0.03099677      -0.19367543      -0.14863598 </v>
   <v>      -0.04739526       0.11285891      -0.20036708 </v>
   <v>      -0.01676195      -0.10196214      -0.18256141 </v>
   <v>       0.15461983       0.09516593      -0.17066960 </v>
   <v>      -0.04550533      -0.17042640      -0.02118465 </v>
   <v>      -0.00676438       0.11914901      -0.07351690 </v>
   <v>       0.06190786      -0.14317262      -0.01163098 </v>
   <v>      -0.25629149       0.05598385       0.23974003 </v>
   <v>      -0.02567127      -0.17266087       0.21934713 </v>
   <v>      -0.00520311       0.11614188       0.12201619 </v>
   <v>      -0.17521998      -0.23063504       0.02903936 </v>
   <v>       0.25348948       0.13376468       0.18509611 </v>
   <v>       0.04734443      -0.07955020       0.05415100 </v>
   <v>      -0.01983694       0.31112551       0.00781669 </v>
   <v>       0.19888203      -0.14449404       0.01547162 </v>
   <v>      -0.75930516      -0.19238951      -0.15069811 </v>
   <v>       0.35185908      -0.32116523       0.36104313 </v>
   <v>       0.21391297      -0.98946930      -1.24075027 </v>
   <v>      -0.52527766       1.06388958      -0.52422529 </v>
   <v>      -0.16498630       0.47122062      -0.10411061 </v>
   <v>       0.40613866      -0.17290383      -0.40185412 </v>
   <v>       0.51377455      -1.22107025       0.50909159 </v>
   <v>      -0.20484069       1.40711512      -0.25334860 </v>
   <v>       0.04409740      -2.90874151       0.02846011 </v>
   <v>       0.15066551       0.54061086       0.86959601 </v>
   <v>      -0.20069016       0.42121374      -0.27332402 </v>
   <v>      -0.26250802      -0.72917923      -0.31396364 </v>
   <v>      -0.39351768       0.60635349       0.71507537 </v>
   <v>       0.38492129      -0.06447889      -0.61091425 </v>
   <v>       0.66134089       0.62697611       0.40620370 </v>
   <v>      -0.48082318       1.00623113       0.50794099 </v>
  </varray>
  <varray name="stress" >
   <v>       6.61552802      -0.43154629      -0.63263438 </v>
   <v>      -0.43154636      12.34118811       0.82773558 </v>
   <v>      -0.63263444       0.82773567       7.75700590 </v>
  </varray>
  <energy>
   <i name="e_fr_energy">   -306.77427887 </i>
   <i name="e_wo_entrp">   -306.77427887 </i>
   <i name="e_0_energy">      0.00000000 </i>
  </energy>
  <time name="totalsc"> 1091.05 1094.90</time>
 </calculation>
 <calculation>
  <scstep>
   <time name="dav">   62.88   62.94</time>
   <time name="total">   63.67   63.73</time>
   <energy>
    <i name="alphaZ">   1079.68745026 </i>
    <i name="ewald"> -30757.52009934 </i>
    <i name="hartreedc"> -12872.93485052 </i>
    <i name="XCdc">   1347.10037417 </i>
    <i name="pawpsdc">  44089.01449927 </i>
    <i name="pawaedc"> -43486.41282287 </i>
    <i name="eentropy">      0.00000000 </i>
    <i name="bandstr">  -4100.51646730 </i>
    <i name="atom">  44408.54722957 </i>
    <i name="e_fr_energy">   -293.03468677 </i>
    <i name="e_wo_entrp">   -293.03468677 </i>
    <i name="e_0_energy">   -293.03468677 </i>
   </energy>
  </scstep>
  <scstep>
   <time name="dav">   69.96   69.96</time>
   <time name="total">   70.76   70.76</time>
   <energy>
    <i name="e_fr_energy">   -293.06512648 </i>
    <i name="e_wo_entrp">   -293.06512648 </i>
    <i name="e_0_energy">   -293.06512648 </i>
   </energy>
  </scstep>
  <scstep>
   <time name="dav">   82.31   82.33</time>
   <time name="total">   83.11   83.13</time>
   <energy>
    <i name="e_fr_energy">   -293.06357104 </i>
    <i name="e_wo_entrp">   -293.06357104 </i>
    <i name="e_0_energy">   -293.06357104 </i>
   </energy>
  </scstep>
  <scstep>
   <time name="dav">   68.30   68.29</time>
   <time name="total">   69.09   69.09</time>
   <energy>
    <i name="e_fr_energy">   -293.06193349 </i>
    <i name="e_wo_entrp">   -293.06193349 </i>
    <i name="e_0_energy">   -293.06193349 </i>
   </energy>
  </scstep>
  <scstep>
   <time name="dav">   90.34   90.34</time>
   <time name="total">   91.14   91.14</time>
   <energy>
    <i name="e_fr_energy">   -293.06181531 </i>
    <i name="e_wo_entrp">   -293.06181531 </i>
    <i name="e_0_energy">   -293.06181531 </i>
   </energy>
  </scstep>
  <scstep>
   <time name="dav">   68.39   68.42</time>
   <time name="total">   69.19   69.21</time>
   <energy>
    <i name="e_fr_energy">   -293.06180562 </i>
    <i name="e_wo_entrp">   -293.06180562 </i>
    <i name="e_0_energy">   -293.06180562 </i>
   </energy>
  </scstep>
  <scstep>
   <time name="dav">   79.05   79.85</time>
   <time name="total">   79.84   80.64</time>
   <energy>
    <i name="e_fr_energy">   -293.06178411 </i>
    <i name="e_wo_entrp">   -293.06178411 </i>
    <i name="e_0_energy">   -293.06178411 </i>
   </energy>
  </scstep>
  <scstep>
   <time name="dav">   70.11   70.52</time>
   <time name="total">   70.90   71.32</time>
   <energy>
    <i name="e_fr_energy">   -293.06177684 </i>
    <i name="e_wo_entrp">   -293.06177684 </i>
    <i name="e_0_energy">   -293.06177684 </i>
   </energy>
  </scstep>
  <scstep>
   <time name="dav">   83.01   83.82</time>
   <time name="total">   83.81   84.62</time>
   <energy>
    <i name="e_fr_energy">   -293.06177717 </i>
    <i name="e_wo_entrp">   -293.06177717 </i>
    <i name="e_0_energy">   -293.06177717 </i>
   </energy>
  </scstep>
  <scstep>
   <time name="dav">   55.65   56.42</time>
   <time name="total">   55.72   56.49</time>
   <energy>
    <i name="alphaZ">   1079.68745026 </i>
    <i name="ewald"> -30757.52009934 </i>
    <i name="hartreedc"> -12882.81067253 </i>
    <i name="XCdc">   1347.53026418 </i>
    <i name="pawpsdc">  44049.76062519 </i>
    <i name="pawaedc"> -43446.76232220 </i>
    <i name="eentropy">      0.00000000 </i>
    <i name="bandstr">  -4091.49425282 </i>
    <i name="atom">  44408.54722957 </i>
    <i name="e_fr_energy">   -293.06177768 </i>
    <i name="e_wo_entrp">   -293.06177768 </i>
    <i name="e_0_energy">   -293.06177768 </i>
   </energy>
  </scstep>
  <structure>
   <crystal>
    <varray name="basis" >
     <v>      11.16084955       0.00068376       0.00179536 </v>
     <v>       0.00058566       9.50637377      -0.00157318 </v>
     <v>       0.00179599      -0.00183736      11.14913987 </v>
    </varray>
    <i name="volume">   1182.91483563 </i>
    <varray name="rec_basis" >
     <v>       0.08959892      -0.00000552      -0.00001443 </v>
     <v>      -0.00000645       0.10519259       0.00001734 </v>
     <v>      -0.00001443       0.00001484       0.08969302 </v>
    </varray>
   </crystal>
   <varray name="positions" >
    <v>       0.12403682       0.99978746       0.19024865 </v>
    <v>       0.62315407       0.00040988       0.43661383 </v>
    <v>       0.87546366      -0.00017344       0.43450668 </v>
    <v>       0.87305057      -0.00014662       0.18982552 </v>
    <v>       0.12763093       0.00039098       0.93903038 </v>
    <v>       0.37734137      -0.00013572       0.93555210 </v>
    <v>       0.37803036      -0.00019313       0.68398939 </v>
    <v>       0.62309378       0.99922350       0.93711596 </v>
    <v>       0.37827370       0.00071677       0.19241953 </v>
    <v>       0.13077313       0.99986341       0.68071302 </v>
    <v>       0.87228825       0.00061403       0.94199640 </v>
    <v>       0.86715574       0.00058548       0.68140601 </v>
    <v>       0.00029353       0.30044846       0.06523268 </v>
    <v>       0.25114445       0.69997115       0.06401132 </v>
    <v>       0.25076394       0.29054997       0.31465318 </v>
    <v>       0.50013293       0.70982876       0.31385811 </v>
    <v>       0.50089173       0.29518768       0.06416276 </v>
    <v>       0.74814832       0.70439910       0.06522447 </v>
    <v>       0.74842519       0.29064663       0.31281561 </v>
    <v>       0.00028216       0.70910468       0.31356265 </v>
    <v>       0.00078951       0.30057819       0.55968832 </v>
    <v>       0.25209207       0.70897744       0.56035928 </v>
    <v>       0.25229093       0.30040262       0.81219219 </v>
    <v>       0.50015464       0.70900809       0.81140526 </v>
    <v>       0.49991568       0.28626251       0.56185084 </v>
    <v>       0.74757164       0.70457373       0.56145821 </v>
    <v>       0.74671154       0.30050951       0.81165015 </v>
    <v>       0.00038217       0.69092575       0.81265426 </v>
    <v>       0.24921157       0.32741682       0.06173094 </v>
    <v>       0.00014333       0.67306903       0.06098369 </v>
    <v>       0.49981448       0.32787977       0.31150466 </v>
    <v>       0.24950284       0.67245256       0.31149367 </v>
    <v>       0.75128014       0.32708313       0.06138501 </v>
    <v>       0.49950970       0.67241659       0.06241593 </v>
    <v>       0.99990154       0.32762373       0.31238649 </v>
    <v>       0.75058089       0.67210581       0.31261226 </v>
    <v>       0.24810629       0.32723557       0.56459445 </v>
    <v>      -0.00034082       0.67314711       0.56511008 </v>
    <v>       0.49988684       0.32755188       0.81391403 </v>
    <v>       0.24800791       0.67281121       0.81359075 </v>
    <v>       0.75203718       0.32742005       0.56439360 </v>
    <v>       0.50044400       0.67212592       0.56350133 </v>
    <v>       0.99976273       0.32605602       0.81295932 </v>
    <v>       0.75210756       0.67334262       0.81311214 </v>
    <v>       0.49530459       0.07825256       0.06125840 </v>
    <v>       0.25065042       0.92574431       0.06287309 </v>
    <v>       0.25125669       0.08152874       0.30526087 </v>
    <v>      -0.00218270       0.91854840       0.30966839 </v>
    <v>       0.99831810       0.07330057       0.05856709 </v>
    <v>       0.75508399       0.92304957       0.05708314 </v>
    <v>       0.75308283       0.08197291       0.31453760 </v>
    <v>       0.49809718       0.91696869       0.30985973 </v>
    <v>       0.49999014       0.08597164       0.56301282 </v>
    <v>       0.24677240       0.91918363       0.56996484 </v>
    <v>       0.24620025       0.07359968       0.81150181 </v>
    <v>      -0.00160479       0.93306259       0.81107483 </v>
    <v>       0.99745930       0.07328036       0.57037544 </v>
    <v>       0.75567463       0.92208783       0.56332741 </v>
    <v>       0.75798623       0.07310048       0.81482096 </v>
    <v>       0.49767175       0.91868335       0.81552845 </v>
   </varray>
  </structure>
  <varray name="forces" >
   <v>      -0.07864047      -0.01420392       0.46712373 </v>
   <v>      -0.38593497       0.06900839      -0.03316144 </v>
   <v>       0.13693213      -0.04510328      -0.33585553 </v>
   <v>      -0.25553335      -0.05221061       0.41881951 </v>
   <v>       0.23320126       0.06687841       0.20785242 </v>
   <v>       0.16520873      -0.04047484      -0.17699814 </v>
   <v>       0.61035620      -0.05859953      -0.44356724 </v>
   <v>      -0.33494820      -0.07623335       0.02409333 </v>
   <v>       0.45005526       0.04084028       0.46223721 </v>
   <v>      -0.07577292       0.20043812      -0.21814031 </v>
   <v>       0.24192358       0.08119011       0.04550926 </v>
   <v>      -0.47518026       0.13852681       0.08048470 </v>
   <v>       0.06192150      -0.05085774       0.10887967 </v>
   <v>       0.08614775       0.01186638       0.08074758 </v>
   <v>       0.09310677       0.72368208       0.27545488 </v>
   <v>       0.04518126      -1.24169939       0.10140223 </v>
   <v>       0.06866116       0.27964412       0.18064686 </v>
   <v>      -0.23558559      -0.06899698       0.27091203 </v>
   <v>      -0.21690210       0.89408854      -0.06676707 </v>
   <v>       0.09990059      -0.73208833       0.11426320 </v>
   <v>       0.06413627      -0.08698740      -0.19895472 </v>
   <v>       0.20262334      -0.57777619      -0.36872451 </v>
   <v>       0.11651919      -0.02625926      -0.00328079 </v>
   <v>       0.06127601      -0.69006367      -0.15596991 </v>
   <v>      -0.01918783       2.09750544      -0.11304457 </v>
   <v>      -0.25858264      -0.31179093      -0.08098639 </v>
   <v>      -0.21938548      -0.09978039      -0.15138127 </v>
   <v>       0.05542961      -0.07724584      -0.03632779 </v>
   <v>      -0.09829285       0.23823138      -0.11301418 </v>
   <v>      -0.02652328      -0.18074154      -0.17927585 </v>
   <v>      -0.04577108       0.12682373      -0.21514155 </v>
   <v>      -0.02576217      -0.10893794      -0.19843859 </v>
   <v>       0.16893179       0.09337477      -0.18918104 </v>
   <v>      -0.05411024      -0.17147554      -0.02932258 </v>
   <v>      -0.00722603       0.12540843      -0.07776828 </v>
   <v>       0.07038938      -0.15305611      -0.01715161 </v>
   <v>      -0.27915924       0.06159514       0.25849351 </v>
   <v>      -0.03221688      -0.16004710       0.25326498 </v>
   <v>      -0.00577108       0.12179506       0.13539157 </v>
   <v>      -0.20532366      -0.21908881       0.04255730 </v>
   <v>       0.27700953       0.13585649       0.20494011 </v>
   <v>       0.05312298      -0.09555076       0.06431740 </v>
   <v>      -0.02260871       0.27469833       0.00887641 </v>
   <v>       0.23163918      -0.13075512       0.02017077 </v>
   <v>      -0.79507832      -0.16950567      -0.16562393 </v>
   <v>       0.33922189      -0.23427367       0.33887998 </v>
   <v>       0.22212042      -0.80088993      -1.28785639 </v>
   <v>      -0.52830905       0.86491565      -0.53754148 </v>
   <v>      -0.19231424       0.35627470      -0.18992960 </v>
   <v>       0.51270322      -0.11972177      -0.51210770 </v>
   <v>       0.53090541      -0.99046369       0.50917093 </v>
   <v>      -0.23410593       1.12438152      -0.29006179 </v>
   <v>       0.04283855      -2.29739006       0.03384886 </v>
   <v>       0.03844739       0.43806199       0.98372425 </v>
   <v>      -0.27561761       0.31646545      -0.27322723 </v>
   <v>      -0.28098695      -0.54987079      -0.32166863 </v>
   <v>      -0.41993636       0.47914975       0.84030278 </v>
   <v>       0.50446253      -0.03974085      -0.51151159 </v>
   <v>       0.79260271       0.49347257       0.42959561 </v>
   <v>      -0.49220811       0.81770733       0.53002065 </v>
  </varray>
  <varray name="stress" >
   <v>       5.52796544      -0.33721156      -0.53163097 </v>
   <v>      -0.33721137       8.57234587       0.66961804 </v>
   <v>      -0.53163091       0.66961819       6.33134280 </v>
  </varray>
  <energy>
   <i name="e_fr_energy">   -306.79842748 </i>
   <i name="e_wo_entrp">   -306.79842748 </i>
   <i name="e_0_energy">      0.00000000 </i>
  </energy>
  <time name="totalsc">  843.98  847.06</time>
 </calculation>
 <calculation>
  <scstep>
   <time name="dav">   70.14   70.14</time>
   <time name="total">   70.93   70.93</time>
   <energy>
    <i name="alphaZ">   1071.23447510 </i>
    <i name="ewald"> -30791.51489161 </i>
    <i name="hartreedc"> -12741.56023490 </i>
    <i name="XCdc">   1342.35852993 </i>
    <i name="pawpsdc">  44049.83357454 </i>
    <i name="pawaedc"> -43446.83379947 </i>
    <i name="eentropy">      0.00000000 </i>
    <i name="bandstr">  -4184.66442466 </i>
    <i name="atom">  44408.54722957 </i>
    <i name="e_fr_energy">   -292.59954149 </i>
    <i name="e_wo_entrp">   -292.59954149 </i>
    <i name="e_0_energy">   -292.59954149 </i>
   </energy>
  </scstep>
  <scstep>
   <time name="dav">   69.57   69.68</time>
   <time name="total">   70.37   70.48</time>
   <energy>
    <i name="e_fr_energy">   -293.84180223 </i>
    <i name="e_wo_entrp">   -293.84180223 </i>
    <i name="e_0_energy">   -293.84180223 </i>
   </energy>
  </scstep>
  <scstep>
   <time name="dav">   87.02   87.37</time>
   <time name="total">   87.81   88.17</time>
   <energy>
    <i name="e_fr_energy">   -293.80478881 </i>
    <i name="e_wo_entrp">   -293.80478881 </i>
    <i name="e_0_energy">   -293.80478881 </i>
   </energy>
  </scstep>
  <scstep>
   <time name="dav">   77.27   77.35</time>
   <time name="total">   78.06   78.14</time>
   <energy>
    <i name="e_fr_energy">   -293.77612450 </i>
    <i name="e_wo_entrp">   -293.77612450 </i>
    <i name="e_0_energy">   -293.77612450 </i>
   </energy>
  </scstep>
  <scstep>
   <time name="dav">   77.79   78.42</time>
   <time name="total">   78.58   79.22</time>
   <energy>
    <i name="e_fr_energy">   -293.76003331 </i>
    <i name="e_wo_entrp">   -293.76003331 </i>
    <i name="e_0_energy">   -293.76003331 </i>
   </energy>
  </scstep>
  <scstep>
   <time name="dav">   76.36   76.74</time>
   <time name="total">   77.16   77.54</time>
   <energy>
    <i name="e_fr_energy">   -293.75937426 </i>
    <i name="e_wo_entrp">   -293.75937426 </i>
    <i name="e_0_energy">   -293.75937426 </i>
   </energy>
  </scstep>
  <scstep>
   <time name="dav">   72.83   72.84</time>
   <time name="total">   73.63   73.65</time>
   <energy>
    <i name="e_fr_energy">   -293.75943633 </i>
    <i name="e_wo_entrp">   -293.75943633 </i>
    <i name="e_0_energy">   -293.75943633 </i>
   </energy>
  </scstep>
  <scstep>
   <time name="dav">   76.43   76.44</time>
   <time name="total">   77.22   77.24</time>
   <energy>
    <i name="e_fr_energy">   -293.75933309 </i>
    <i name="e_wo_entrp">   -293.75933309 </i>
    <i name="e_0_energy">   -293.75933309 </i>
   </energy>
  </scstep>
  <scstep>
   <time name="dav">   80.19   80.20</time>
   <time name="total">   80.98   81.00</time>
   <energy>
    <i name="e_fr_energy">   -293.75931505 </i>
    <i name="e_wo_entrp">   -293.75931505 </i>
    <i name="e_0_energy">   -293.75931505 </i>
   </energy>
  </scstep>
  <scstep>
   <time name="dav">   72.39   72.39</time>
   <time name="total">   73.18   73.19</time>
   <energy>
    <i name="e_fr_energy">   -293.75931745 </i>
    <i name="e_wo_entrp">   -293.75931745 </i>
    <i name="e_0_energy">   -293.75931745 </i>
   </energy>
  </scstep>
  <scstep>
   <time name="dav">   69.31   69.31</time>
   <time name="total">   70.10   70.10</time>
   <energy>
    <i name="e_fr_energy">   -293.75931963 </i>
    <i name="e_wo_entrp">   -293.75931963 </i>
    <i name="e_0_energy">   -293.75931963 </i>
   </energy>
  </scstep>
  <scstep>
   <time name="dav">   61.84   61.84</time>
   <time name="total">   62.64   62.65</time>
   <energy>
    <i name="e_fr_energy">   -293.75932188 </i>
    <i name="e_wo_entrp">   -293.75932188 </i>
    <i name="e_0_energy">   -293.75932188 </i>
   </energy>
  </scstep>
  <scstep>
   <time name="dav">   53.43   53.45</time>
   <time name="total">   54.23   54.25</time>
   <energy>
    <i name="e_fr_energy">   -293.75932316 </i>
    <i name="e_wo_entrp">   -293.75932316 </i>
    <i name="e_0_energy">   -293.75932316 </i>
   </energy>
  </scstep>
  <scstep>
   <time name="dav">   43.53   43.54</time>
   <time name="total">   43.60   43.62</time>
   <energy>
    <i name="alphaZ">   1071.23447510 </i>
    <i name="ewald"> -30791.51489161 </i>
    <i name="hartreedc"> -12810.97696327 </i>
    <i name="XCdc">   1345.59617255 </i>
    <i name="pawpsdc">  43713.97167957 </i>
    <i name="pawaedc"> -43106.47881704 </i>
    <i name="eentropy">      0.00000000 </i>
    <i name="bandstr">  -4124.13820822 </i>
    <i name="atom">  44408.54722957 </i>
    <i name="e_fr_energy">   -293.75932334 </i>
    <i name="e_wo_entrp">   -293.75932334 </i>
    <i name="e_0_energy">   -293.75932334 </i>
   </energy>
  </scstep>
  <structure>
   <crystal>
    <varray name="basis" >
     <v>      11.19072319      -0.00127208      -0.00103884 </v>
     <v>      -0.00108027       9.53043983       0.00159350 </v>
     <v>      -0.00103511       0.00187667      11.17881877 </v>
    </varray>
    <i name="volume">   1192.24906633 </i>
    <varray name="rec_basis" >
     <v>       0.08935973       0.00001013       0.00000827 </v>
     <v>       0.00001193       0.10492696      -0.00001761 </v>
     <v>       0.00000830      -0.00001496       0.08945489 </v>
    </varray>
   </crystal>
   <varray name="positions" >
    <v>       0.12350364       0.99969901       0.19340757 </v>
    <v>       0.62074012       0.00095284       0.43638440 </v>
    <v>       0.87607097      -0.00051859       0.43225825 </v>
    <v>       0.87142442      -0.00051666       0.19263231 </v>
    <v>       0.12939786       0.00091680       0.94066392 </v>
    <v>       0.37871973      -0.00044450       0.93434181 </v>
    <v>       0.38180840      -0.00061279       0.68110295 </v>
    <v>       0.62087539       0.99862859       0.93730408 </v>
    <v>       0.38145435       0.00111168       0.19631114 </v>
    <v>       0.13258921       0.00086990       0.67764722 </v>
    <v>       0.87223935       0.00117410       0.94397048 </v>
    <v>       0.86255344       0.00142096       0.67985119 </v>
    <v>       0.00061282       0.30203007       0.06653710 </v>
    <v>       0.25186197       0.69834194       0.06477138 </v>
    <v>       0.25146886       0.29253846       0.31646076 </v>
    <v>       0.50041603       0.70539076       0.31464900 </v>
    <v>       0.50144712       0.29658100       0.06540049 </v>
    <v>       0.74646056       0.70391233       0.06721470 </v>
    <v>       0.74700314       0.29351800       0.31253093 </v>
    <v>       0.00084922       0.70695420       0.31430586 </v>
    <v>       0.00129076       0.30202429       0.55775864 </v>
    <v>       0.25363324       0.70755103       0.55794050 </v>
    <v>       0.25362513       0.30209045       0.81196022 </v>
    <v>       0.50051380       0.70703300       0.81025067 </v>
    <v>       0.49975966       0.29360244       0.56103825 </v>
    <v>       0.74558680       0.70293712       0.56064459 </v>
    <v>       0.74468487       0.30186827       0.81060100 </v>
    <v>       0.00079546       0.68569591       0.81244142 </v>
    <v>       0.24850356       0.32882988       0.06085878 </v>
    <v>       0.00006338       0.67211165       0.05956993 </v>
    <v>       0.49957333       0.32889891       0.31011972 </v>
    <v>       0.24923865       0.67163802       0.31017564 </v>
    <v>       0.75242416       0.32765748       0.06006855 </v>
[...]
       <r>    8.6867    0.0000 </r>
       <r>    8.7418    0.0000 </r>
       <r>    8.7611    0.0000 </r>
       <r>    8.7954    0.0000 </r>
       <r>    8.8418    0.0000 </r>
       <r>    8.8639    0.0000 </r>
       <r>    8.9324    0.0000 </r>
      </set>
     </set>
    </set>
   </array>
  </eigenvalues>
  <separator name="orbital magnetization" >
   <v name="MAGDIPOLOUT">      0.00000000      0.00000000      0.00000000</v>
  </separator>
  <dos>
   <i name="efermi">      4.24966295 </i>
   <total>
    <array>
     <dimension dim="1">gridpoints</dimension>
     <dimension dim="2">spin</dimension>
     <field>energy</field>
     <field>total</field>
     <field>integrated</field>
     <set>
      <set comment="spin 1">
       <r>   -42.6512     0.0000     0.0000 </r>
       <r>   -42.4689     0.0000     0.0000 </r>
       <r>   -42.2866     0.0000     0.0000 </r>
       <r>   -42.1043     0.0000     0.0000 </r>
       <r>   -41.9219     0.0000     0.0000 </r>
       <r>   -41.7396     0.0000     0.0000 </r>
       <r>   -41.5573     0.0000     0.0000 </r>
       <r>   -41.3750     0.0000     0.0000 </r>
       <r>   -41.1927     0.0000     0.0000 </r>
       <r>   -41.0104     0.0000     0.0000 </r>
       <r>   -40.8280     0.0000     0.0000 </r>
       <r>   -40.6457     0.0000     0.0000 </r>
       <r>   -40.4634     0.0000     0.0000 </r>
       <r>   -40.2811     0.0000     0.0000 </r>
       <r>   -40.0988     0.0000     2.0000 </r>
       <r>   -39.9165     0.0000     2.0000 </r>
       <r>   -39.7341     0.0000     6.0000 </r>
       <r>   -39.5518     0.0000    10.0000 </r>
       <r>   -39.3695     0.0000    12.0000 </r>
       <r>   -39.1872     0.0000    16.0000 </r>
       <r>   -39.0049     0.0000    16.0000 </r>
       <r>   -38.8226     0.0000    16.0000 </r>
       <r>   -38.6402     0.0000    16.0000 </r>
       <r>   -38.4579     0.0000    16.0000 </r>
       <r>   -38.2756     0.0000    16.0000 </r>
       <r>   -38.0933     0.0000    16.0000 </r>
       <r>   -37.9110     0.0000    16.0000 </r>
       <r>   -37.7287     0.0000    16.0000 </r>
       <r>   -37.5464     0.0000    16.0000 </r>
       <r>   -37.3640     0.0000    16.0000 </r>
       <r>   -37.1817     0.0000    16.0000 </r>
       <r>   -36.9994     0.0000    16.0000 </r>
       <r>   -36.8171     0.0000    16.0000 </r>
       <r>   -36.6348     0.0000    16.0000 </r>
       <r>   -36.4525     0.0000    16.0000 </r>
       <r>   -36.2701     0.0000    16.0000 </r>
       <r>   -36.0878     0.0000    16.0000 </r>
       <r>   -35.9055     0.0000    16.0000 </r>
       <r>   -35.7232     0.0000    16.0000 </r>
       <r>   -35.5409     0.0000    16.0000 </r>
       <r>   -35.3586     0.0000    16.0000 </r>
       <r>   -35.1762     0.0000    16.0000 </r>
       <r>   -34.9939     0.0000    16.0000 </r>
       <r>   -34.8116     0.0000    16.0000 </r>
       <r>   -34.6293     0.0000    16.0000 </r>
       <r>   -34.4470     0.0000    16.0000 </r>
       <r>   -34.2647     0.0000    16.0000 </r>
       <r>   -34.0823     0.0000    16.0000 </r>
       <r>   -33.9000     0.0000    16.0000 </r>
       <r>   -33.7177     0.0000    16.0000 </r>
       <r>   -33.5354     0.0000    16.0000 </r>
       <r>   -33.3531     0.0000    16.0000 </r>
       <r>   -33.1708     0.0000    16.0000 </r>
       <r>   -32.9884     0.0000    16.0000 </r>
       <r>   -32.8061     0.0000    16.0000 </r>
       <r>   -32.6238     0.0000    16.0000 </r>
       <r>   -32.4415     0.0000    16.0000 </r>
       <r>   -32.2592     0.0000    16.0000 </r>
       <r>   -32.0769     0.0000    16.0000 </r>
       <r>   -31.8945     0.0000    16.0000 </r>
       <r>   -31.7122     0.0000    16.0000 </r>
       <r>   -31.5299     0.0000    16.0000 </r>
       <r>   -31.3476     0.0000    16.0000 </r>
       <r>   -31.1653     0.0000    16.0000 </r>
       <r>   -30.9830     0.0000    16.0000 </r>
       <r>   -30.8006     0.0000    16.0000 </r>
       <r>   -30.6183     0.0000    16.0000 </r>
       <r>   -30.4360     0.0000    16.0000 </r>
       <r>   -30.2537     0.0000    16.0000 </r>
       <r>   -30.0714     0.0000    16.0000 </r>
       <r>   -29.8891     0.0000    16.0000 </r>
       <r>   -29.7067     0.0000    16.0000 </r>
       <r>   -29.5244     0.0000    16.0000 </r>
       <r>   -29.3421     0.0000    16.0000 </r>
       <r>   -29.1598     0.0000    16.0000 </r>
       <r>   -28.9775     0.0000    16.0000 </r>
       <r>   -28.7952     0.0000    16.0000 </r>
       <r>   -28.6129     0.0000    16.0000 </r>
       <r>   -28.4305     0.0000    16.0000 </r>
       <r>   -28.2482     0.0000    16.0000 </r>
       <r>   -28.0659     0.0000    16.0000 </r>
       <r>   -27.8836     0.0000    16.0000 </r>
       <r>   -27.7013     0.0000    16.0000 </r>
       <r>   -27.5190     0.0000    16.0000 </r>
       <r>   -27.3366     0.0000    16.0000 </r>
       <r>   -27.1543     0.0000    16.0000 </r>
       <r>   -26.9720     0.0000    16.0000 </r>
       <r>   -26.7897     0.0000    16.0000 </r>
       <r>   -26.6074     0.0000    16.0000 </r>
       <r>   -26.4251     0.0000    16.0000 </r>
       <r>   -26.2427     0.0000    16.0000 </r>
       <r>   -26.0604     0.0000    16.0000 </r>
       <r>   -25.8781     0.0000    16.0000 </r>
       <r>   -25.6958     0.0000    16.0000 </r>
       <r>   -25.5135     0.0000    16.0000 </r>
       <r>   -25.3312     0.0000    16.0000 </r>
       <r>   -25.1488     0.0000    16.0000 </r>
       <r>   -24.9665     0.0000    16.0000 </r>
       <r>   -24.7842     0.0000    16.0000 </r>
       <r>   -24.6019     0.0000    16.0000 </r>
       <r>   -24.4196     0.0000    16.0000 </r>
       <r>   -24.2373     0.0000    16.0000 </r>
       <r>   -24.0549     0.0000    16.0000 </r>
       <r>   -23.8726     0.0000    16.0000 </r>
       <r>   -23.6903     0.0000    16.0000 </r>
       <r>   -23.5080     0.0000    16.0000 </r>
       <r>   -23.3257     0.0000    16.0000 </r>
       <r>   -23.1434     0.0000    16.0000 </r>
       <r>   -22.9610     0.0000    16.0000 </r>
       <r>   -22.7787     0.0000    16.0000 </r>
       <r>   -22.5964     0.0000    16.0000 </r>
       <r>   -22.4141     0.0000    16.0000 </r>
       <r>   -22.2318     0.0000    16.0000 </r>
       <r>   -22.0495     0.0000    16.0000 </r>
       <r>   -21.8671     0.0000    16.0000 </r>
       <r>   -21.6848     0.0000    16.0000 </r>
       <r>   -21.5025     0.0000    16.0000 </r>
       <r>   -21.3202     0.0000    16.0000 </r>
       <r>   -21.1379     0.0000    16.0000 </r>
       <r>   -20.9556     0.0000    16.0000 </r>
       <r>   -20.7733     0.0000    16.0000 </r>
       <r>   -20.5909     0.0000    16.0000 </r>
       <r>   -20.4086     0.0000    16.0000 </r>
       <r>   -20.2263     0.0000    16.0000 </r>
       <r>   -20.0440     0.0000    16.0000 </r>
       <r>   -19.8617     0.0000    16.0000 </r>
       <r>   -19.6794     0.0000    16.0000 </r>
       <r>   -19.4970     0.0000    16.0000 </r>
       <r>   -19.3147     0.0000    16.0000 </r>
       <r>   -19.1324     0.0000    16.0000 </r>
       <r>   -18.9501     0.0000    16.0000 </r>
       <r>   -18.7678     0.0000    44.0000 </r>
       <r>   -18.5855     0.0000   130.0000 </r>
       <r>   -18.4031     0.0000   172.0000 </r>
       <r>   -18.2208     0.0000   176.0000 </r>
       <r>   -18.0385     0.0000   176.0000 </r>
       <r>   -17.8562     0.0000   176.0000 </r>
       <r>   -17.6739     0.0000   176.0000 </r>
       <r>   -17.4916     0.0000   176.0000 </r>
       <r>   -17.3092     0.0000   176.0000 </r>
       <r>   -17.1269     0.0000   176.0000 </r>
       <r>   -16.9446     0.0000   176.0000 </r>
       <r>   -16.7623     0.0000   176.0000 </r>
       <r>   -16.5800     0.0000   176.0000 </r>
       <r>   -16.3977     0.0000   176.0000 </r>
       <r>   -16.2153     0.0000   176.0000 </r>
       <r>   -16.0330     0.0000   176.0000 </r>
       <r>   -15.8507     0.0000   176.0000 </r>
       <r>   -15.6684     0.0000   176.0000 </r>
       <r>   -15.4861     0.0000   176.0000 </r>
       <r>   -15.3038     0.0000   176.0000 </r>
       <r>   -15.1214     0.0000   176.0000 </r>
       <r>   -14.9391     0.0000   176.0000 </r>
       <r>   -14.7568     0.0000   176.0000 </r>
       <r>   -14.5745     0.0000   176.0000 </r>
       <r>   -14.3922     0.0000   176.0000 </r>
       <r>   -14.2099     0.0000   176.0000 </r>
       <r>   -14.0275     0.0000   176.0000 </r>
       <r>   -13.8452     0.0000   176.0000 </r>
       <r>   -13.6629     0.0000   176.0000 </r>
       <r>   -13.4806     0.0000   176.0000 </r>
       <r>   -13.2983     0.0000   178.0000 </r>
       <r>   -13.1160     0.0000   180.0000 </r>
       <r>   -12.9336     0.0000   188.0000 </r>
       <r>   -12.7513     0.0000   196.0000 </r>
       <r>   -12.5690     0.0000   204.0000 </r>
       <r>   -12.3867     0.0000   206.0000 </r>
       <r>   -12.2044     0.0000   208.0000 </r>
       <r>   -12.0221     0.0000   208.0000 </r>
       <r>   -11.8398     0.0000   208.0000 </r>
       <r>   -11.6574     0.0000   208.0000 </r>
       <r>   -11.4751     0.0000   208.0000 </r>
       <r>   -11.2928     0.0000   208.0000 </r>
       <r>   -11.1105     0.0000   208.0000 </r>
       <r>   -10.9282     0.0000   208.0000 </r>
       <r>   -10.7459     0.0000   208.0000 </r>
       <r>   -10.5635     0.0000   208.0000 </r>
       <r>   -10.3812     0.0000   208.0000 </r>
       <r>   -10.1989     0.0000   208.0000 </r>
       <r>   -10.0166     0.0000   208.0000 </r>
       <r>    -9.8343     0.0000   208.0000 </r>
       <r>    -9.6520     0.0000   208.0000 </r>
       <r>    -9.4696     4.1058   208.0646 </r>
       <r>    -9.2873     3.6666   209.9543 </r>
       <r>    -9.1050    12.8847   210.9163 </r>
       <r>    -8.9227     5.0830   212.2016 </r>
       <r>    -8.7404    14.7891   214.9533 </r>
       <r>    -8.5581    28.3532   218.2825 </r>
       <r>    -8.3757    23.1882   222.2851 </r>
       <r>    -8.1934     0.8682   224.0011 </r>
       <r>    -8.0111    35.8731   230.0827 </r>
       <r>    -7.8288    15.3771   235.1752 </r>
       <r>    -7.6465    26.2288   237.4519 </r>
       <r>    -7.4642     0.0000   240.0000 </r>
       <r>    -7.2818     0.0000   240.0000 </r>
       <r>    -7.0995     0.0000   240.0000 </r>
       <r>    -6.9172     0.0000   240.0000 </r>
       <r>    -6.7349     0.0000   240.0000 </r>
       <r>    -6.5526     0.0000   240.0000 </r>
       <r>    -6.3703     3.5778   240.0616 </r>
       <r>    -6.1879    20.6208   243.8221 </r>
       <r>    -6.0056    30.6449   247.5632 </r>
       <r>    -5.8233    22.0171   250.5828 </r>
       <r>    -5.6410    22.6241   255.9471 </r>
       <r>    -5.4587    20.0529   259.9659 </r>
       <r>    -5.2764    11.5889   262.9726 </r>
       <r>    -5.0940     1.9683   264.0478 </r>
       <r>    -4.9117    12.6276   265.3409 </r>
       <r>    -4.7294     7.3802   267.5082 </r>
       <r>    -4.5471     4.6079   268.6242 </r>
       <r>    -4.3648     7.9039   269.7510 </r>
       <r>    -4.1825     4.5875   271.2810 </r>
       <r>    -4.0002     1.8343   271.7678 </r>
       <r>    -3.8178     0.4960   271.9801 </r>
       <r>    -3.6355     0.0000   272.0000 </r>
       <r>    -3.4532     0.0000   272.0000 </r>
       <r>    -3.2709     0.0000   272.0000 </r>
       <r>    -3.0886     0.0000   272.0000 </r>
       <r>    -2.9063     0.0000   272.0000 </r>
       <r>    -2.7239     0.0000   272.0000 </r>
       <r>    -2.5416     0.0000   272.0000 </r>
       <r>    -2.3593     0.0000   272.0000 </r>
       <r>    -2.1770     0.0000   272.0000 </r>
       <r>    -1.9947     0.0000   272.0000 </r>
       <r>    -1.8124     0.0000   272.0000 </r>
       <r>    -1.6300     0.0000   272.0000 </r>
       <r>    -1.4477     0.0000   272.0000 </r>
       <r>    -1.2654     8.3019   272.5511 </r>
       <r>    -1.0831     7.6416   273.9704 </r>
       <r>    -0.9008     9.5003   275.1999 </r>
       <r>    -0.7185    13.5274   277.6340 </r>
       <r>    -0.5361    14.5220   279.6881 </r>
       <r>    -0.3538    28.4155   283.6967 </r>
       <r>    -0.1715    33.9885   288.9000 </r>
       <r>     0.0108    42.6047   295.9029 </r>
       <r>     0.1931    35.4794   303.2203 </r>
       <r>     0.3754    37.3561   310.6625 </r>
       <r>     0.5578    52.9824   316.0353 </r>
       <r>     0.7401    45.3248   322.8083 </r>
       <r>     0.9224    49.2390   329.8461 </r>
       <r>     1.1047    51.2191   337.8710 </r>
       <r>     1.2870    51.4356   346.5223 </r>
       <r>     1.4693    45.2371   355.2220 </r>
       <r>     1.6517    47.3014   363.8612 </r>
       <r>     1.8340    36.2767   371.8870 </r>
       <r>     2.0163    48.0789   379.4236 </r>
       <r>     2.1986    56.3954   388.9821 </r>
       <r>     2.3809    73.0842   399.8872 </r>
       <r>     2.5632    58.1342   411.4312 </r>
       <r>     2.7456    64.5514   422.6843 </r>
       <r>     2.9279    80.0588   434.9967 </r>
       <r>     3.1102    55.0932   444.2793 </r>
       <r>     3.2925    26.5871   450.4091 </r>
       <r>     3.4748    20.0753   457.6828 </r>
       <r>     3.6571    14.4888   460.9942 </r>
       <r>     3.8395     8.0730   463.0507 </r>
       <r>     4.0218     1.7502   463.9399 </r>
       <r>     4.2041     0.0000   464.0000 </r>
       <r>     4.3864     0.0000   464.0000 </r>
       <r>     4.5687     0.0000   464.0000 </r>
       <r>     4.7510     0.0000   464.0000 </r>
       <r>     4.9333     0.0000   464.0000 </r>
       <r>     5.1157     0.5515   464.0115 </r>
       <r>     5.2980     6.1627   464.5982 </r>
       <r>     5.4803    10.1121   466.1939 </r>
       <r>     5.6626    13.1855   468.0733 </r>
       <r>     5.8449    15.6398   472.2457 </r>
       <r>     6.0272    13.2034   474.8263 </r>
       <r>     6.2096    12.8557   477.1744 </r>
       <r>     6.3919    14.0578   479.6129 </r>
       <r>     6.5742    15.6829   482.3178 </r>
       <r>     6.7565    17.4793   485.3348 </r>
       <r>     6.9388    21.6904   488.8475 </r>
       <r>     7.1211    21.8339   492.8342 </r>
       <r>     7.3035    31.3231   497.4268 </r>
       <r>     7.4858    30.0459   503.8041 </r>
       <r>     7.6681    34.0640   509.1981 </r>
       <r>     7.8504    33.3804   515.3806 </r>
       <r>     8.0327    35.6699   521.4918 </r>
       <r>     8.2150    29.9335   527.7820 </r>
       <r>     8.3974    22.0790   532.2629 </r>
       <r>     8.5797    35.6128   537.3817 </r>
       <r>     8.7620    38.9240   543.7848 </r>
       <r>     8.9443    31.9912   550.4334 </r>
       <r>     9.1266    20.3258   555.1283 </r>
       <r>     9.3089    12.9673   558.2208 </r>
       <r>     9.4913     4.7865   559.8441 </r>
       <r>     9.6736     0.0000   560.0000 </r>
       <r>     9.8559     0.0000   560.0000 </r>
       <r>    10.0382     0.0000   560.0000 </r>
       <r>    10.2205     0.0000   560.0000 </r>
       <r>    10.4028     0.0000   560.0000 </r>
       <r>    10.5852     0.0000   560.0000 </r>
       <r>    10.7675     0.0000   560.0000 </r>
       <r>    10.9498     0.0000   560.0000 </r>
       <r>    11.1321     0.0000   560.0000 </r>
       <r>    11.3144     0.0000   560.0000 </r>
       <r>    11.4967     0.0000   560.0000 </r>
       <r>    11.6791     0.0000   560.0000 </r>
       <r>    11.8614     0.0000   560.0000 </r>
       <r>    12.0437     0.0000   560.0000 </r>
      </set>
     </set>
    </array>
   </total>
  </dos>
 </calculation>
 <structure name="finalpos" >
  <crystal>
   <varray name="basis" >
    <v>      11.21437151       0.04551254      -0.02170341 </v>
    <v>       0.03898727       9.55226686       0.01474749 </v>
    <v>      -0.02124419       0.01911136      11.24293497 </v>
   </varray>
   <i name="volume">   1204.34566017 </i>
   <varray name="rec_basis" >
    <v>       0.08917310      -0.00036422       0.00016912 </v>
    <v>      -0.00042522       0.10468920      -0.00017876 </v>
    <v>       0.00017270      -0.00013803       0.08894531 </v>
   </varray>
  </crystal>
  <varray name="positions" >
   <v>       0.08536850       0.03343054       0.22977439 </v>
   <v>       0.58250593       0.02712874       0.38608032 </v>
   <v>       0.85791663      -0.01221513       0.42427998 </v>
   <v>       0.82149443      -0.02124980       0.20353340 </v>
   <v>       0.14913068       0.02155990       0.97826714 </v>
   <v>       0.36565097      -0.00200968       0.92155486 </v>
   <v>       0.43101560      -0.03708857       0.64670932 </v>
   <v>       0.59675934       0.98366576       0.95918457 </v>
   <v>       0.37411031      -0.00182207       0.17636082 </v>
   <v>       0.12969566       0.00579735       0.70553369 </v>
   <v>       0.88697830       0.00051440       0.94538383 </v>
   <v>       0.86505996       0.00545180       0.68768965 </v>
   <v>       0.00191788       0.31259844       0.06434101 </v>
   <v>       0.25557027       0.68897854       0.06270696 </v>
   <v>       0.25268198       0.30082336       0.30979566 </v>
   <v>       0.49629615       0.69906017       0.30976070 </v>
   <v>       0.49883032       0.30315749       0.05890570 </v>
   <v>       0.75279914       0.69101432       0.06059320 </v>
   <v>       0.74996917       0.29953635       0.31562448 </v>
   <v>      -0.00419002       0.70607689       0.30911683 </v>
   <v>       0.00723067       0.31311414       0.56681484 </v>
   <v>       0.25477278       0.70399903       0.56827641 </v>
   <v>       0.25255398       0.31057808       0.81513766 </v>
   <v>       0.49864518       0.69662260       0.81332831 </v>
   <v>       0.50516100       0.28804838       0.55906424 </v>
   <v>       0.75452895       0.69272164       0.56017935 </v>
   <v>       0.75328474       0.31566535       0.81390112 </v>
   <v>       0.00082679       0.68203176       0.80929879 </v>
   <v>       0.25512387       0.36228942       0.06386525 </v>
   <v>       0.00144623       0.66046211       0.06203995 </v>
   <v>       0.50379784       0.33787232       0.31045150 </v>
   <v>       0.25092683       0.66917794       0.30837187 </v>
   <v>       0.75711345       0.33805843       0.06263646 </v>
   <v>       0.50383257       0.64463473       0.06198706 </v>
   <v>       0.00463707       0.31943182       0.31146665 </v>
   <v>       0.75332031       0.65466251       0.31001348 </v>
   <v>       0.25355275       0.32106908       0.56781807 </v>
   <v>       0.00574973       0.64817768       0.56401203 </v>
   <v>       0.50560641       0.32845165       0.81243662 </v>
   <v>       0.25280558       0.64016464       0.81120432 </v>
   <v>       0.75754600       0.34205303       0.56525019 </v>
   <v>       0.50298688       0.69212690       0.56367836 </v>
   <v>       0.00477529       0.36807767       0.81445290 </v>
   <v>       0.75527975       0.65521751       0.81142733 </v>
   <v>       0.47423091       0.08759457       0.04896941 </v>
   <v>       0.26981581       0.90733156       0.05228621 </v>
   <v>       0.24520203       0.09436700       0.26344976 </v>
   <v>      -0.03550240       0.91775867       0.29795514 </v>
   <v>       0.00583567       0.09062073       0.05301935 </v>
   <v>       0.76250459       0.91084995       0.04567718 </v>
   <v>       0.74266629       0.08533923       0.32458951 </v>
   <v>       0.49056738       0.91035439       0.28452774 </v>
   <v>       0.51487211       0.07998025       0.54060583 </v>
   <v>       0.25531078       0.90978145       0.61639086 </v>
   <v>       0.22330221       0.09389311       0.83676775 </v>
   <v>      -0.01115199       0.91369797       0.80676844 </v>
   <v>       0.00115097       0.09833679       0.60853786 </v>
   <v>       0.78957969       0.90320442       0.56082451 </v>
   <v>       0.78717967       0.09819480       0.82346557 </v>
   <v>       0.48937043       0.90996791       0.82645557 </v>
  </varray>
 </structure>
</modeling>
