<?xml version="1.0" encoding="ISO-8859-1"?>
<modeling>
 <generator>
  <i name="program" type="string">vasp </i>
  <i name="version" type="string">5.4.4.18Apr17-6-g9f103f2a35  </i>
  <i name="subversion" type="string">(build Jul 31 2017 11:33:29) complex            parallel </i>
  <i name="platform" type="string">LinuxIFC </i>
  <i name="date" type="string">2021 09 29 </i>
  <i name="time" type="string">06:15:09 </i>
 </generator>
 <incar>
  <i type="string" name="SYSTEM"> La2O2S</i>
  <i type="string" name="PREC">normal</i>
  <i type="int" name="NELMIN">     4</i>
  <i type="int" name="IBRION">     2</i>
  <i type="int" name="NFREE">    10</i>
  <i name="EDIFF">      0.00000100</i>
  <i name="EDIFFG">     -0.01000000</i>
  <i type="int" name="NSW">     1</i>
  <i type="int" name="ISIF">     2</i>
  <i name="ENCUT">    600.00000000</i>
  <i name="ENAUG">    900.00000000</i>
  <i type="int" name="ISMEAR">    -5</i>
  <i type="logical" name="LWAVE"> F  </i>
  <i type="logical" name="LCHARG"> F  </i>
  <v type="int" name="KPOINT_BSE">    -1     0     0     0</v>
 </incar>
 <structure name="primitive_cell" >
  <crystal>
   <varray name="basis" >
    <v>      11.17850000       0.00000000       0.00000000 </v>
    <v>       0.00000000       9.57460000       0.00000000 </v>
    <v>       0.00000000       0.00000000      11.18240000 </v>
   </varray>
   <i name="volume">   1196.84853820 </i>
   <varray name="rec_basis" >
    <v>       0.08945744       0.00000000       0.00000000 </v>
    <v>       0.00000000       0.10444301       0.00000000 </v>
    <v>       0.00000000       0.00000000       0.08942624 </v>
   </varray>
  </crystal>
  <varray name="positions" >
   <v>       0.37539000       0.00017000       0.43687000 </v>
   <v>      -0.49987000      -0.07798000       0.31246000 </v>
   <v>       0.25013000       0.07798000       0.31246000 </v>
   <v>       0.49987000       0.07798000      -0.43754000 </v>
   <v>       0.24987000      -0.07798000      -0.43754000 </v>
   <v>      -0.37461000      -0.00016000       0.43687000 </v>
   <v>       0.37461000       0.00017000      -0.31313000 </v>
   <v>       0.37461000       0.00017000       0.18687000 </v>
   <v>       0.49987000      -0.29519000       0.31282000 </v>
   <v>       0.24987000       0.29519000       0.31282000 </v>
   <v>      -0.49987000       0.29519000      -0.43719000 </v>
   <v>       0.25013000      -0.29519000      -0.43719000 </v>
   <v>       0.49995000       0.32677000       0.31286000 </v>
   <v>       0.24995000      -0.32677000       0.31286000 </v>
   <v>      -0.49995000      -0.32677000      -0.43714000 </v>
   <v>       0.25005000       0.32677000      -0.43714000 </v>
   <v>      -0.37539000      -0.00016000       0.18687000 </v>
   <v>      -0.37539000      -0.00016000      -0.31313000 </v>
   <v>       0.12461000      -0.00016000       0.18687000 </v>
   <v>       0.12461000      -0.00016000      -0.31313000 </v>
   <v>       0.49987000       0.07798000       0.06246000 </v>
   <v>      -0.24987000       0.07798000       0.31246000 </v>
   <v>      -0.25013000      -0.07798000      -0.43754000 </v>
   <v>       0.24987000      -0.07798000       0.06246000 </v>
   <v>       0.00013000      -0.07798000       0.31246000 </v>
   <v>      -0.49987000      -0.07798000      -0.18754000 </v>
   <v>      -0.00013000       0.07798000      -0.43754000 </v>
   <v>       0.25013000       0.07798000      -0.18754000 </v>
   <v>      -0.49987000       0.29519000       0.06281000 </v>
   <v>      -0.25013000       0.29519000       0.31282000 </v>
   <v>       0.25013000      -0.29519000       0.06281000 </v>
   <v>      -0.24987000      -0.29519000      -0.43719000 </v>
   <v>      -0.00013000      -0.29519000       0.31282000 </v>
   <v>       0.00013000       0.29519000      -0.43719000 </v>
   <v>       0.49987000      -0.29519000      -0.18718000 </v>
   <v>       0.24987000       0.29519000      -0.18718000 </v>
   <v>      -0.49995000      -0.32677000       0.06286000 </v>
   <v>       0.25005000       0.32677000       0.06286000 </v>
   <v>      -0.25005000      -0.32677000       0.31286000 </v>
   <v>      -0.24995000       0.32677000      -0.43714000 </v>
   <v>      -0.00005000       0.32677000       0.31286000 </v>
   <v>       0.00005000      -0.32677000      -0.43714000 </v>
   <v>       0.49995000       0.32677000      -0.18714000 </v>
   <v>       0.24995000      -0.32677000      -0.18714000 </v>
   <v>      -0.12461000       0.00017000       0.43687000 </v>
   <v>       0.37539000       0.00017000      -0.06313000 </v>
   <v>      -0.25013000      -0.07798000       0.06246000 </v>
   <v>      -0.00013000       0.07798000       0.06246000 </v>
   <v>      -0.24987000       0.07798000      -0.18754000 </v>
   <v>       0.00013000      -0.07798000      -0.18754000 </v>
   <v>      -0.12539000       0.00017000       0.18687000 </v>
   <v>      -0.12539000       0.00017000      -0.31313000 </v>
   <v>      -0.37461000      -0.00016000      -0.06313000 </v>
   <v>      -0.24987000      -0.29519000       0.06281000 </v>
   <v>       0.00013000       0.29519000       0.06281000 </v>
   <v>      -0.25013000       0.29519000      -0.18718000 </v>
   <v>      -0.00013000      -0.29519000      -0.18718000 </v>
   <v>      -0.24995000       0.32677000       0.06286000 </v>
   <v>       0.00005000      -0.32677000       0.06286000 </v>
   <v>      -0.25005000      -0.32677000      -0.18714000 </v>
   <v>      -0.00005000       0.32677000      -0.18714000 </v>
   <v>      -0.12461000       0.00017000      -0.06313000 </v>
  </varray>
 </structure>
 <varray name="primitive_index" >
  <v type="int" >        1 </v>
  <v type="int" >       54 </v>
  <v type="int" >       49 </v>
  <v type="int" >       55 </v>
  <v type="int" >       56 </v>
  <v type="int" >        3 </v>
  <v type="int" >        8 </v>
  <v type="int" >       13 </v>
  <v type="int" >       18 </v>
  <v type="int" >       17 </v>
  <v type="int" >       27 </v>
  <v type="int" >       24 </v>
  <v type="int" >       33 </v>
  <v type="int" >       34 </v>
  <v type="int" >       44 </v>
  <v type="int" >       39 </v>
  <v type="int" >        5 </v>
  <v type="int" >       11 </v>
  <v type="int" >        2 </v>
  <v type="int" >       14 </v>
  <v type="int" >       47 </v>
  <v type="int" >       53 </v>
  <v type="int" >       60 </v>
  <v type="int" >       48 </v>
  <v type="int" >       50 </v>
  <v type="int" >       62 </v>
  <v type="int" >       59 </v>
  <v type="int" >       57 </v>
  <v type="int" >       19 </v>
  <v type="int" >       21 </v>
  <v type="int" >       16 </v>
  <v type="int" >       28 </v>
  <v type="int" >       22 </v>
  <v type="int" >       23 </v>
  <v type="int" >       26 </v>
  <v type="int" >       25 </v>
  <v type="int" >       36 </v>
  <v type="int" >       31 </v>
  <v type="int" >       38 </v>
  <v type="int" >       43 </v>
  <v type="int" >       37 </v>
  <v type="int" >       40 </v>
  <v type="int" >       41 </v>
  <v type="int" >       42 </v>
  <v type="int" >        4 </v>
  <v type="int" >        7 </v>
  <v type="int" >       52 </v>
  <v type="int" >       51 </v>
  <v type="int" >       61 </v>
  <v type="int" >       58 </v>
  <v type="int" >        6 </v>
  <v type="int" >       12 </v>
  <v type="int" >        9 </v>
  <v type="int" >       20 </v>
  <v type="int" >       15 </v>
  <v type="int" >       29 </v>
  <v type="int" >       30 </v>
  <v type="int" >       35 </v>
  <v type="int" >       32 </v>
  <v type="int" >       46 </v>
  <v type="int" >       45 </v>
  <v type="int" >       10 </v>
 </varray>
 <kpoints>
  <generation param="Gamma">
   <v type="int" name="divisions">       2        2        2 </v>
   <v name="usershift">      0.00000000       0.00000000       0.00000000 </v>
   <v name="genvec1">      0.50000000       0.00000000       0.00000000 </v>
   <v name="genvec2">      0.00000000       0.50000000       0.00000000 </v>
   <v name="genvec3">      0.00000000       0.00000000       0.50000000 </v>
   <v name="shift">      0.00000000       0.00000000       0.00000000 </v>
  </generation>
  <varray name="kpointlist" >
   <v>       0.00000000       0.00000000       0.00000000 </v>
   <v>       0.50000000       0.00000000       0.00000000 </v>
   <v>       0.00000000       0.50000000       0.00000000 </v>
   <v>       0.50000000       0.50000000       0.00000000 </v>
   <v>       0.00000000       0.00000000       0.50000000 </v>
   <v>       0.50000000       0.00000000       0.50000000 </v>
   <v>       0.00000000       0.50000000       0.50000000 </v>
   <v>       0.50000000       0.50000000       0.50000000 </v>
  </varray>
  <varray name="weights" >
   <v>       0.12500000 </v>
   <v>       0.12500000 </v>
   <v>       0.12500000 </v>
   <v>       0.12500000 </v>
   <v>       0.12500000 </v>
   <v>       0.12500000 </v>
   <v>       0.12500000 </v>
   <v>       0.12500000 </v>
  </varray>
  <varray name="tetrahedronlist"  type="int" >
   <v type="int" >        2        1        2        4        5 </v>
   <v type="int" >        2        1        3        4        5 </v>
   <v type="int" >        2        3        4        5        7 </v>
   <v type="int" >        2        2        4        5        6 </v>
   <v type="int" >        2        4        5        6        8 </v>
   <v type="int" >        2        4        5        7        8 </v>
   <v type="int" >        2        1        2        3        6 </v>
   <v type="int" >        2        2        3        4        6 </v>
   <v type="int" >        2        3        4        6        8 </v>
   <v type="int" >        2        1        3        5        6 </v>
   <v type="int" >        2        3        5        6        7 </v>
   <v type="int" >        2        3        6        7        8 </v>
   <v type="int" >        2        2        3        4        7 </v>
   <v type="int" >        2        1        2        3        7 </v>
   <v type="int" >        2        1        2        5        7 </v>
   <v type="int" >        2        2        4        7        8 </v>
   <v type="int" >        2        2        6        7        8 </v>
   <v type="int" >        2        2        5        6        7 </v>
   <v type="int" >        2        1        3        4        8 </v>
   <v type="int" >        2        1        2        4        8 </v>
   <v type="int" >        2        1        2        6        8 </v>
   <v type="int" >        2        1        3        7        8 </v>
   <v type="int" >        2        1        5        7        8 </v>
   <v type="int" >        2        1        5        6        8 </v>
  </varray>
  <i name="volumeweight">      0.02083333 </i>
 </kpoints>
 <parameters>
  <separator name="general" >
   <i type="string" name="SYSTEM">La2O2S</i>
   <i type="logical" name="LCOMPAT"> F  </i>
  </separator>
  <separator name="electronic" >
   <i type="string" name="PREC">normal</i>
   <i name="ENMAX">    600.00000000</i>
   <i name="ENAUG">    900.00000000</i>
   <i name="EDIFF">      0.00000100</i>
   <i type="int" name="IALGO">    38</i>
   <i type="int" name="IWAVPR">    11</i>
   <i type="int" name="NBANDS">   308</i>
   <i name="NELECT">    472.00000000</i>
   <i type="int" name="TURBO">     0</i>
   <i type="int" name="IRESTART">     0</i>
   <i type="int" name="NREBOOT">     0</i>
   <i type="int" name="NMIN">     0</i>
   <i name="EREF">      0.00000000</i>
   <separator name="electronic smearing" >
    <i type="int" name="ISMEAR">    -5</i>
    <i name="SIGMA">      0.20000000</i>
    <i name="KSPACING">      0.50000000</i>
    <i type="logical" name="KGAMMA"> T  </i>
   </separator>
   <separator name="electronic projectors" >
    <i type="logical" name="LREAL"> F  </i>
    <v name="ROPT">      0.00000000      0.00000000      0.00000000      0.00000000      0.00000000</v>
    <i type="int" name="LMAXPAW">  -100</i>
    <i type="int" name="LMAXMIX">     2</i>
    <i type="logical" name="NLSPLINE"> F  </i>
   </separator>
   <separator name="electronic startup" >
    <i type="int" name="ISTART">     0</i>
    <i type="int" name="ICHARG">     2</i>
    <i type="int" name="INIWAV">     1</i>
   </separator>
   <separator name="electronic spin" >
    <i type="int" name="ISPIN">     1</i>
    <i type="logical" name="LNONCOLLINEAR"> F  </i>
    <v name="MAGMOM">      1.00000000      1.00000000      1.00000000      1.00000000      1.00000000      1.00000000      1.00000000      1.00000000      1.00000000      1.00000000      1.00000000      1.00000000      1.00000000      1.00000000      1.00000000      1.00000000      1.00000000      1.00000000      1.00000000      1.00000000
      1.00000000      1.00000000      1.00000000      1.00000000      1.00000000      1.00000000      1.00000000      1.00000000      1.00000000      1.00000000      1.00000000      1.00000000      1.00000000      1.00000000      1.00000000      1.00000000      1.00000000      1.00000000      1.00000000      1.00000000
      1.00000000      1.00000000      1.00000000      1.00000000      1.00000000      1.00000000      1.00000000      1.00000000      1.00000000      1.00000000      1.00000000      1.00000000      1.00000000      1.00000000      1.00000000      1.00000000      1.00000000      1.00000000      1.00000000      1.00000000
      1.00000000      1.00000000</v>
    <i name="NUPDOWN">     -1.00000000</i>
    <i type="logical" name="LSORBIT"> F  </i>
    <v name="SAXIS">      0.00000000      0.00000000      1.00000000</v>
    <i type="logical" name="LSPIRAL"> F  </i>
    <v name="QSPIRAL">      0.00000000      0.00000000      0.00000000</v>
    <i type="logical" name="LZEROZ"> F  </i>
   </separator>
   <separator name="electronic exchange-correlation" >
    <i type="logical" name="LASPH"> F  </i>
    <i type="logical" name="LMETAGGA"> F  </i>
   </separator>
   <separator name="electronic convergence" >
    <i type="int" name="NELM">    60</i>
    <i type="int" name="NELMDL">    -5</i>
    <i type="int" name="NELMIN">     4</i>
    <i name="ENINI">    600.00000000</i>
    <separator name="electronic convergence detail" >
     <i type="logical" name="LDIAG"> T  </i>
     <i type="logical" name="LSUBROT"> F  </i>
     <i name="WEIMIN">      0.00100000</i>
     <i name="EBREAK">      0.00000000</i>
     <i name="DEPER">      0.30000000</i>
     <i type="int" name="NRMM">     4</i>
     <i name="TIME">      0.40000000</i>
    </separator>
   </separator>
   <separator name="electronic mixer" >
    <i name="AMIX">      0.40000000</i>
    <i name="BMIX">      1.00000000</i>
    <i name="AMIN">      0.10000000</i>
    <i name="AMIX_MAG">      1.60000000</i>
    <i name="BMIX_MAG">      1.00000000</i>
    <separator name="electronic mixer details" >
     <i type="int" name="IMIX">     4</i>
     <i type="logical" name="MIXFIRST"> F  </i>
     <i type="int" name="MAXMIX">   -45</i>
     <i name="WC">    100.00000000</i>
     <i type="int" name="INIMIX">     1</i>
     <i type="int" name="MIXPRE">     1</i>
     <i type="int" name="MREMOVE">     5</i>
    </separator>
   </separator>
   <separator name="electronic dipolcorrection" >
    <i type="logical" name="LDIPOL"> F  </i>
    <i type="logical" name="LMONO"> F  </i>
    <i type="int" name="IDIPOL">     0</i>
    <i name="EPSILON">      1.00000000</i>
    <v name="DIPOL">   -100.00000000   -100.00000000   -100.00000000</v>
    <i name="EFIELD">      0.00000000</i>
   </separator>
  </separator>
  <separator name="grids" >
   <i type="int" name="NGX">    70</i>
   <i type="int" name="NGY">    60</i>
   <i type="int" name="NGZ">    70</i>
   <i type="int" name="NGXF">   140</i>
   <i type="int" name="NGYF">   120</i>
   <i type="int" name="NGZF">   140</i>
   <i type="logical" name="ADDGRID"> F  </i>
  </separator>
  <separator name="ionic" >
   <i type="int" name="NSW">     1</i>
   <i type="int" name="IBRION">     2</i>
   <i type="int" name="MDALGO">     0</i>
   <i type="int" name="ISIF">     2</i>
   <i name="PSTRESS">      0.00000000</i>
   <i name="EDIFFG">     -0.01000000</i>
   <i type="int" name="NFREE">    10</i>
   <i name="POTIM">      0.50000000</i>
   <i name="SMASS">     -3.00000000</i>
   <i name="SCALEE">      1.00000000</i>
  </separator>
  <separator name="ionic md" >
   <i name="TEBEG">      0.00010000</i>
   <i name="TEEND">      0.00010000</i>
   <i type="int" name="NBLOCK">     1</i>
   <i type="int" name="KBLOCK">     1</i>
   <i type="int" name="NPACO">   256</i>
   <i name="APACO">     16.00000000</i>
  </separator>
  <separator name="symmetry" >
   <i type="int" name="ISYM">     2</i>
   <i name="SYMPREC">      0.00001000</i>
  </separator>
  <separator name="dos" >
   <i type="int" name="LORBIT">     0</i>
   <v name="RWIGS">     -1.00000000     -1.00000000     -1.00000000     -1.00000000     -1.00000000</v>
   <i type="int" name="NEDOS">   301</i>
   <i name="EMIN">     10.00000000</i>
   <i name="EMAX">    -10.00000000</i>
   <i name="EFERMI">      0.00000000</i>
  </separator>
  <separator name="writing" >
   <i type="int" name="NWRITE">     2</i>
   <i type="logical" name="LWAVE"> F  </i>
   <i type="logical" name="LDOWNSAMPLE"> F  </i>
   <i type="logical" name="LCHARG"> F  </i>
   <i type="logical" name="LPARD"> F  </i>
   <i type="logical" name="LVTOT"> F  </i>
   <i type="logical" name="LVHAR"> F  </i>
   <i type="logical" name="LELF"> F  </i>
   <i type="logical" name="LOPTICS"> F  </i>
   <v name="STM">      0.00000000      0.00000000      0.00000000      0.00000000      0.00000000      0.00000000      0.00000000</v>
  </separator>
  <separator name="performance" >
   <i type="int" name="NPAR">    28</i>
   <i type="int" name="NSIM">     4</i>
   <i type="int" name="NBLK">    -1</i>
   <i type="logical" name="LPLANE"> T  </i>
   <i type="logical" name="LSCALAPACK"> T  </i>
   <i type="logical" name="LSCAAWARE"> F  </i>
   <i type="logical" name="LSCALU"> F  </i>
   <i type="logical" name="LASYNC"> F  </i>
   <i type="logical" name="LORBITALREAL"> F  </i>
  </separator>
  <separator name="miscellaneous" >
   <i type="int" name="IDIOT">     3</i>
   <i type="int" name="ISPECIAL">     0</i>
   <i type="logical" name="LMUSIC"> F  </i>
   <v name="POMASS">      7.01000000     24.30500000    208.98000000     32.06600000     16.00000000</v>
   <v name="DARWINR">      0.00000000      0.00000000      0.00000000      0.00000000      0.00000000</v>
   <v name="DARWINV">      1.00000000      1.00000000      1.00000000      1.00000000      1.00000000</v>
   <i type="logical" name="LCORR"> T  </i>
  </separator>
  <i type="logical" name="GGA_COMPAT"> T  </i>
  <i type="logical" name="LBERRY"> F  </i>
  <i type="int" name="ICORELEVEL">     0</i>
  <i type="logical" name="LDAU"> F  </i>
  <i type="int" name="I_CONSTRAINED_M">     0</i>
  <separator name="electronic exchange-correlation" >
   <i type="string" name="GGA">--</i>
   <i type="int" name="VOSKOWN">     0</i>
   <i type="logical" name="LHFCALC"> F  </i>
   <i type="string" name="PRECFOCK"></i>
   <i type="logical" name="LSYMGRAD"> F  </i>
   <i type="logical" name="LHFONE"> F  </i>
   <i type="logical" name="LRHFCALC"> F  </i>
   <i type="logical" name="LTHOMAS"> F  </i>
   <i type="logical" name="LMODELHF"> F  </i>
   <i name="ENCUT4O">     -1.00000000</i>
   <i type="int" name="EXXOEP">     0</i>
   <i type="int" name="FOURORBIT">     0</i>
   <i name="AEXX">      0.00000000</i>
   <i name="HFALPHA">      0.00000000</i>
   <i name="MCALPHA">      0.00000000</i>
   <i name="ALDAX">      1.00000000</i>
   <i name="AGGAX">      1.00000000</i>
   <i name="ALDAC">      1.00000000</i>
   <i name="AGGAC">      1.00000000</i>
   <i type="int" name="NKREDX">     1</i>
   <i type="int" name="NKREDY">     1</i>
   <i type="int" name="NKREDZ">     1</i>
   <i type="logical" name="SHIFTRED"> F  </i>
   <i type="logical" name="ODDONLY"> F  </i>
   <i type="logical" name="EVENONLY"> F  </i>
   <i type="int" name="LMAXFOCK">     0</i>
   <i type="int" name="NMAXFOCKAE">     0</i>
   <i type="logical" name="LFOCKAEDFT"> F  </i>
   <i name="HFSCREEN">      0.00000000</i>
   <i name="HFSCREENC">      0.00000000</i>
   <i type="int" name="NBANDSGWLOW">     0</i>
  </separator>
  <separator name="vdW DFT" >
   <i type="logical" name="LUSE_VDW"> F  </i>
   <i name="Zab_VDW">     -0.84910000</i>
   <i name="PARAM1">      0.12340000</i>
   <i name="PARAM2">      1.00000000</i>
   <i name="PARAM3">      0.00000000</i>
  </separator>
  <separator name="model GW" >
   <i type="int" name="MODEL_GW">     0</i>
   <i name="MODEL_EPS0">     11.58240521</i>
   <i name="MODEL_ALPHA">      1.00000000</i>
  </separator>
  <separator name="linear response parameters" >
   <i type="logical" name="LEPSILON"> F  </i>
   <i type="logical" name="LRPA"> F  </i>
   <i type="logical" name="LNABLA"> F  </i>
   <i type="logical" name="LVEL"> F  </i>
   <i type="int" name="KINTER">     0</i>
   <i name="CSHIFT">      0.10000000</i>
   <i name="OMEGAMAX">     -1.00000000</i>
   <i name="DEG_THRESHOLD">      0.00200000</i>
   <i name="RTIME">     -0.10000000</i>
   <i name="WPLASMAI">      0.00000000</i>
   <v name="DFIELD">      0.00000000      0.00000000      0.00000000</v>
   <v name="WPLASMA">      0.00000000      0.00000000      0.00000000      0.00000000      0.00000000      0.00000000      0.00000000      0.00000000      0.00000000</v>
  </separator>
  <separator name="orbital magnetization" >
   <i type="logical" name="NUCIND"> F  </i>
   <v name="MAGPOS">      0.00000000      0.00000000      0.00000000</v>
   <i type="logical" name="LNICSALL"> T  </i>
   <i type="logical" name="ORBITALMAG"> F  </i>
   <i type="logical" name="LMAGBLOCH"> F  </i>
   <i type="logical" name="LCHIMAG"> F  </i>
   <i type="logical" name="LGAUGE"> T  </i>
   <i type="int" name="MAGATOM">     0</i>
   <v name="MAGDIPOL">      0.00000000      0.00000000      0.00000000</v>
   <v name="AVECCONST">      0.00000000      0.00000000      0.00000000</v>
  </separator>
  <separator name="response functions" >
   <i type="logical" name="LADDER"> F  </i>
   <i type="logical" name="LRPAFORCE"> F  </i>
   <i type="logical" name="LFXC"> F  </i>
   <i type="logical" name="LHARTREE"> T  </i>
   <i type="int" name="IBSE">     0</i>
   <v type="int" name="KPOINT">    -1     0     0     0</v>
   <i type="logical" name="LTCTE"> F  </i>
   <i type="logical" name="LTETE"> F  </i>
   <i type="logical" name="LTRIPLET"> F  </i>
   <i type="logical" name="LFXCEPS"> F  </i>
   <i type="logical" name="LFXHEG"> F  </i>
   <i type="int" name="NATURALO">     2</i>
   <i type="logical" name="L2ORDER"> F  </i>
   <i type="logical" name="LMP2LT"> F  </i>
   <i type="logical" name="LUSEW"> F  </i>
   <i name="ENCUTGW">     -2.00000000</i>
   <i name="ENCUTGWSOFT">     -2.00000000</i>
   <i name="ENCUTLF">     -1.00000000</i>
   <i type="int" name="LMAXMP2">    -1</i>
   <i name="SCISSOR">      0.00000000</i>
   <i type="int" name="NOMEGA">     0</i>
   <i type="int" name="NOMEGAR">     0</i>
   <i type="int" name="NBANDSGW">    -1</i>
   <i type="int" name="NBANDSO">    -1</i>
   <i type="int" name="NBANDSV">    -1</i>
   <i type="int" name="NELM">     1</i>
   <i type="int" name="NELMHF">     1</i>
   <i type="int" name="DIM">     3</i>
   <i type="int" name="ANTIRES">     0</i>
   <i name="OMEGAMAX">    -30.00000000</i>
   <i name="OMEGAMIN">    -30.00000000</i>
   <i name="OMEGATL">   -200.00000000</i>
   <i type="int" name="OMEGAGRID">   140</i>
   <i name="CSHIFT">     -0.10000000</i>
   <i type="logical" name="SELFENERGY"> F  </i>
   <i type="logical" name="LSPECTRAL"> F  </i>
   <i type="logical" name="LSPECTRALGW"> F  </i>
   <i type="logical" name="LSINGLES"> F  </i>
   <i type="logical" name="LFERMIGW"> F  </i>
   <i type="logical" name="ODDONLYGW"> F  </i>
   <i type="logical" name="EVENONLYGW"> F  </i>
   <i type="int" name="NKREDLFX">     1</i>
   <i type="int" name="NKREDLFY">     1</i>
   <i type="int" name="NKREDLFZ">     1</i>
   <i type="int" name="MAXMEM">  2800</i>
   <i type="int" name="TELESCOPE">     0</i>
   <i type="int" name="TAUPAR">     1</i>
   <i type="int" name="OMEGAPAR">    -1</i>
   <i name="LAMBDA">      1.00000000</i>
  </separator>
  <separator name="External order field" >
   <i name="OFIELD_KAPPA">      0.00000000</i>
   <v name="OFIELD_K">      0.00000000      0.00000000      0.00000000</v>
   <i name="OFIELD_Q6_NEAR">      0.00000000</i>
   <i name="OFIELD_Q6_FAR">      0.00000000</i>
   <i name="OFIELD_A">      0.00000000</i>
  </separator>
 </parameters>
 <atominfo>
  <atoms>      62 </atoms>
  <types>       5 </types>
  <array name="atoms" >
   <dimension dim="1">ion</dimension>
   <field type="string">element</field>
   <field type="int">atomtype</field>
   <set>
    <rc><c>Li</c><c>   1</c></rc>
    <rc><c>Li</c><c>   1</c></rc>
    <rc><c>Li</c><c>   1</c></rc>
    <rc><c>Li</c><c>   1</c></rc>
    <rc><c>Li</c><c>   1</c></rc>
    <rc><c>Li</c><c>   1</c></rc>
    <rc><c>Li</c><c>   1</c></rc>
    <rc><c>Li</c><c>   1</c></rc>
    <rc><c>Li</c><c>   1</c></rc>
    <rc><c>Li</c><c>   1</c></rc>
    <rc><c>Li</c><c>   1</c></rc>
    <rc><c>Li</c><c>   1</c></rc>
    <rc><c>Mg</c><c>   2</c></rc>
    <rc><c>Mg</c><c>   2</c></rc>
    <rc><c>Bi</c><c>   3</c></rc>
    <rc><c>Bi</c><c>   3</c></rc>
    <rc><c>Bi</c><c>   3</c></rc>
    <rc><c>Bi</c><c>   3</c></rc>
    <rc><c>Bi</c><c>   3</c></rc>
    <rc><c>Bi</c><c>   3</c></rc>
    <rc><c>Bi</c><c>   3</c></rc>
    <rc><c>Bi</c><c>   3</c></rc>
    <rc><c>Bi</c><c>   3</c></rc>
    <rc><c>Bi</c><c>   3</c></rc>
    <rc><c>Bi</c><c>   3</c></rc>
    <rc><c>Bi</c><c>   3</c></rc>
    <rc><c>Bi</c><c>   3</c></rc>
    <rc><c>Bi</c><c>   3</c></rc>
    <rc><c>Bi</c><c>   3</c></rc>
    <rc><c>Bi</c><c>   3</c></rc>
    <rc><c>S </c><c>   4</c></rc>
    <rc><c>S </c><c>   4</c></rc>
    <rc><c>S </c><c>   4</c></rc>
    <rc><c>S </c><c>   4</c></rc>
    <rc><c>S </c><c>   4</c></rc>
    <rc><c>S </c><c>   4</c></rc>
    <rc><c>S </c><c>   4</c></rc>
    <rc><c>S </c><c>   4</c></rc>
    <rc><c>S </c><c>   4</c></rc>
    <rc><c>S </c><c>   4</c></rc>
    <rc><c>S </c><c>   4</c></rc>
    <rc><c>S </c><c>   4</c></rc>
    <rc><c>S </c><c>   4</c></rc>
    <rc><c>S </c><c>   4</c></rc>
    <rc><c>S </c><c>   4</c></rc>
    <rc><c>S </c><c>   4</c></rc>
    <rc><c>O </c><c>   5</c></rc>
    <rc><c>O </c><c>   5</c></rc>
    <rc><c>O </c><c>   5</c></rc>
    <rc><c>O </c><c>   5</c></rc>
    <rc><c>O </c><c>   5</c></rc>
    <rc><c>O </c><c>   5</c></rc>
    <rc><c>O </c><c>   5</c></rc>
    <rc><c>O </c><c>   5</c></rc>
    <rc><c>O </c><c>   5</c></rc>
    <rc><c>O </c><c>   5</c></rc>
    <rc><c>O </c><c>   5</c></rc>
    <rc><c>O </c><c>   5</c></rc>
    <rc><c>O </c><c>   5</c></rc>
    <rc><c>O </c><c>   5</c></rc>
    <rc><c>O </c><c>   5</c></rc>
    <rc><c>O </c><c>   5</c></rc>
   </set>
  </array>
  <array name="atomtypes" >
   <dimension dim="1">type</dimension>
   <field type="int">atomspertype</field>
   <field type="string">element</field>
   <field>mass</field>
   <field>valence</field>
   <field type="string">pseudopotential</field>
   <set>
    <rc><c>  12</c><c>Li</c><c>      7.01000000</c><c>      3.00000000</c><c>  PAW_PBE Li_sv 10Sep2004               </c></rc>
    <rc><c>   2</c><c>Mg</c><c>     24.30500000</c><c>      2.00000000</c><c>  PAW_PBE Mg 13Apr2007                  </c></rc>
    <rc><c>  16</c><c>Bi</c><c>    208.98000000</c><c>     15.00000000</c><c>  PAW_PBE Bi_d 06Sep2000                </c></rc>
    <rc><c>  16</c><c>S </c><c>     32.06600000</c><c>      6.00000000</c><c>  PAW_PBE S 06Sep2000                   </c></rc>
    <rc><c>  16</c><c>O </c><c>     16.00000000</c><c>      6.00000000</c><c>  PAW_PBE O 08Apr2002                   </c></rc>
   </set>
  </array>
 </atominfo>
 <structure name="initialpos" >
  <crystal>
   <varray name="basis" >
    <v>      11.17850000       0.00000000       0.00000000 </v>
    <v>       0.00000000       9.57460000       0.00000000 </v>
    <v>       0.00000000       0.00000000      11.18240000 </v>
   </varray>
   <i name="volume">   1196.84853820 </i>
   <varray name="rec_basis" >
    <v>       0.08945744       0.00000000       0.00000000 </v>
    <v>       0.00000000       0.10444301       0.00000000 </v>
    <v>       0.00000000       0.00000000       0.08942624 </v>
   </varray>
  </crystal>
  <varray name="positions" >
   <v>       0.37539000       0.00017000       0.43687000 </v>
   <v>       0.12461000       0.99984000       0.18687000 </v>
   <v>       0.62539000       0.99984000       0.43687000 </v>
   <v>       0.87539000       0.00017000       0.43687000 </v>
   <v>       0.62461000       0.99984000       0.18687000 </v>
   <v>       0.87461000       0.00017000       0.18687000 </v>
   <v>       0.37539000       0.00017000       0.93687000 </v>
   <v>       0.37461000       0.00017000       0.68687000 </v>
   <v>       0.62539000       0.99984000       0.93687000 </v>
   <v>       0.87539000       0.00017000       0.93687000 </v>
   <v>       0.62461000       0.99984000       0.68687000 </v>
   <v>       0.87461000       0.00017000       0.68687000 </v>
   <v>       0.37461000       0.00017000       0.18687000 </v>
   <v>       0.12461000       0.99984000       0.68687000 </v>
   <v>       0.00013000       0.29519000       0.06281000 </v>
   <v>       0.25013000       0.70481000       0.06281000 </v>
   <v>       0.24987000       0.29519000       0.31282000 </v>
   <v>       0.49987000       0.70481000       0.31282000 </v>
   <v>       0.50013000       0.29519000       0.06281000 </v>
   <v>       0.75013000       0.70481000       0.06281000 </v>
   <v>       0.74987000       0.29519000       0.31282000 </v>
   <v>       0.99987000       0.70481000       0.31282000 </v>
   <v>       0.00013000       0.29519000       0.56281000 </v>
   <v>       0.25013000       0.70481000       0.56281000 </v>
   <v>       0.24987000       0.29519000       0.81282000 </v>
   <v>       0.49987000       0.70481000       0.81282000 </v>
   <v>       0.50013000       0.29519000       0.56281000 </v>
   <v>       0.75013000       0.70481000       0.56281000 </v>
   <v>       0.74987000       0.29519000       0.81282000 </v>
   <v>       0.99987000       0.70481000       0.81282000 </v>
   <v>       0.25005000       0.32677000       0.06286000 </v>
   <v>       0.00005000       0.67323000       0.06286000 </v>
   <v>       0.49995000       0.32677000       0.31286000 </v>
   <v>       0.24995000       0.67323000       0.31286000 </v>
   <v>       0.75005000       0.32677000       0.06286000 </v>
   <v>       0.50005000       0.67323000       0.06286000 </v>
   <v>       0.99995000       0.32677000       0.31286000 </v>
   <v>       0.74995000       0.67323000       0.31286000 </v>
   <v>       0.25005000       0.32677000       0.56286000 </v>
   <v>       0.00005000       0.67323000       0.56286000 </v>
   <v>       0.49995000       0.32677000       0.81286000 </v>
   <v>       0.24995000       0.67323000       0.81286000 </v>
   <v>       0.75005000       0.32677000       0.56286000 </v>
   <v>       0.50005000       0.67323000       0.56286000 </v>
   <v>       0.99995000       0.32677000       0.81286000 </v>
   <v>       0.74995000       0.67323000       0.81286000 </v>
   <v>       0.49987000       0.07798000       0.06246000 </v>
   <v>       0.24987000       0.92202000       0.06246000 </v>
   <v>       0.25013000       0.07798000       0.31246000 </v>
   <v>       0.00013000       0.92202000       0.31246000 </v>
   <v>       0.99987000       0.07798000       0.06246000 </v>
   <v>       0.74987000       0.92202000       0.06246000 </v>
   <v>       0.75013000       0.07798000       0.31246000 </v>
   <v>       0.50013000       0.92202000       0.31246000 </v>
   <v>       0.49987000       0.07798000       0.56246000 </v>
   <v>       0.24987000       0.92202000       0.56246000 </v>
   <v>       0.25013000       0.07798000       0.81246000 </v>
   <v>       0.00013000       0.92202000       0.81246000 </v>
   <v>       0.99987000       0.07798000       0.56246000 </v>
   <v>       0.74987000       0.92202000       0.56246000 </v>
   <v>       0.75013000       0.07798000       0.81246000 </v>
   <v>       0.50013000       0.92202000       0.81246000 </v>
  </varray>
 </structure>
 <calculation>
  <scstep>
   <time name="dav">   66.00   66.48</time>
   <time name="total">   66.08   66.56</time>
   <energy>
    <i name="alphaZ">   1079.87189334 </i>
    <i name="ewald"> -31106.52543954 </i>
    <i name="hartreedc"> -12718.46029632 </i>
    <i name="XCdc">   1468.88652260 </i>
    <i name="pawpsdc">  36917.91861236 </i>
    <i name="pawaedc"> -36503.41947684 </i>
    <i name="eentropy">      0.00000000 </i>
    <i name="bandstr">   1593.30888795 </i>
    <i name="atom">  45173.57650906 </i>
    <i name="e_fr_energy">   5905.15721261 </i>
    <i name="e_wo_entrp">   5905.15721261 </i>
    <i name="e_0_energy">   5905.15721261 </i>
   </energy>
  </scstep>
  <scstep>
   <time name="dav">   66.54   66.79</time>
   <time name="total">   66.55   66.81</time>
   <energy>
    <i name="e_fr_energy">    758.40259517 </i>
    <i name="e_wo_entrp">    758.40259517 </i>
    <i name="e_0_energy">    758.40259517 </i>
   </energy>
  </scstep>
  <scstep>
   <time name="dav">   71.60   72.41</time>
   <time name="total">   71.60   72.42</time>
   <energy>
    <i name="e_fr_energy">   -241.78392656 </i>
    <i name="e_wo_entrp">   -241.78392656 </i>
    <i name="e_0_energy">   -241.78392656 </i>
   </energy>
  </scstep>
  <scstep>
   <time name="dav">   82.76   83.09</time>
   <time name="total">   82.76   83.09</time>
   <energy>
    <i name="e_fr_energy">   -352.69290855 </i>
    <i name="e_wo_entrp">   -352.69290855 </i>
    <i name="e_0_energy">   -352.69290855 </i>
   </energy>
  </scstep>
  <scstep>
   <time name="dav">  106.29  106.36</time>
   <time name="total">  107.02  107.09</time>
   <energy>
    <i name="e_fr_energy">   -361.15185706 </i>
    <i name="e_wo_entrp">   -361.15185706 </i>
    <i name="e_0_energy">   -361.15185706 </i>
   </energy>
  </scstep>
  <scstep>
   <time name="dav">   93.82   93.96</time>
   <time name="total">   94.63   94.78</time>
   <energy>
    <i name="e_fr_energy">   -301.38135015 </i>
    <i name="e_wo_entrp">   -301.38135015 </i>
    <i name="e_0_energy">   -301.38135015 </i>
   </energy>
  </scstep>
  <scstep>
   <time name="dav">   74.17   74.72</time>
   <time name="total">   74.97   75.52</time>
   <energy>
    <i name="e_fr_energy">   -303.58769631 </i>
    <i name="e_wo_entrp">   -303.58769631 </i>
    <i name="e_0_energy">   -303.58769631 </i>
   </energy>
  </scstep>
  <scstep>
   <time name="dav">   84.43   85.30</time>
   <time name="total">   85.25   86.12</time>
   <energy>
    <i name="e_fr_energy">   -302.22182087 </i>
    <i name="e_wo_entrp">   -302.22182087 </i>
    <i name="e_0_energy">   -302.22182087 </i>
   </energy>
  </scstep>
  <scstep>
   <time name="dav">   97.20   98.42</time>
   <time name="total">   98.05   99.27</time>
   <energy>
    <i name="e_fr_energy">   -301.61456318 </i>
    <i name="e_wo_entrp">   -301.61456318 </i>
    <i name="e_0_energy">   -301.61456318 </i>
   </energy>
  </scstep>
  <scstep>
   <time name="dav">   81.19   81.36</time>
   <time name="total">   81.99   82.16</time>
   <energy>
    <i name="e_fr_energy">   -301.58131198 </i>
    <i name="e_wo_entrp">   -301.58131198 </i>
    <i name="e_0_energy">   -301.58131198 </i>
   </energy>
  </scstep>
  <scstep>
   <time name="dav">   80.37   80.94</time>
   <time name="total">   81.18   81.74</time>
   <energy>
    <i name="e_fr_energy">   -301.59415066 </i>
    <i name="e_wo_entrp">   -301.59415066 </i>
    <i name="e_0_energy">   -301.59415066 </i>
   </energy>
  </scstep>
  <scstep>
   <time name="dav">   85.27   85.81</time>
   <time name="total">   86.08   86.62</time>
   <energy>
    <i name="e_fr_energy">   -301.59853283 </i>
    <i name="e_wo_entrp">   -301.59853283 </i>
    <i name="e_0_energy">   -301.59853283 </i>
   </energy>
  </scstep>
  <scstep>
   <time name="dav">   87.91   88.14</time>
   <time name="total">   88.74   88.98</time>
   <energy>
    <i name="e_fr_energy">   -301.59970547 </i>
    <i name="e_wo_entrp">   -301.59970547 </i>
    <i name="e_0_energy">   -301.59970547 </i>
   </energy>
  </scstep>
  <scstep>
   <time name="dav">   84.28   84.42</time>
   <time name="total">   85.08   85.22</time>
   <energy>
    <i name="e_fr_energy">   -301.59987507 </i>
    <i name="e_wo_entrp">   -301.59987507 </i>
    <i name="e_0_energy">   -301.59987507 </i>
   </energy>
  </scstep>
  <scstep>
   <time name="dav">   91.67   91.73</time>
   <time name="total">   92.47   92.54</time>
   <energy>
    <i name="e_fr_energy">   -301.59990990 </i>
    <i name="e_wo_entrp">   -301.59990990 </i>
    <i name="e_0_energy">   -301.59990990 </i>
   </energy>
  </scstep>
  <scstep>
   <time name="dav">   71.81   72.10</time>
   <time name="total">   72.63   72.93</time>
   <energy>
    <i name="e_fr_energy">   -301.59992587 </i>
    <i name="e_wo_entrp">   -301.59992587 </i>
    <i name="e_0_energy">   -301.59992587 </i>
   </energy>
  </scstep>
  <scstep>
   <time name="dav">   75.43   75.72</time>
   <time name="total">   75.51   75.80</time>
   <energy>
    <i name="alphaZ">   1079.87189334 </i>
    <i name="ewald"> -31106.52543954 </i>
    <i name="hartreedc"> -12953.98998659 </i>
    <i name="XCdc">   1491.84582707 </i>
    <i name="pawpsdc">  43944.57746451 </i>
    <i name="pawaedc"> -43505.46863577 </i>
    <i name="eentropy">      0.00000000 </i>
    <i name="bandstr">  -4425.48755893 </i>
    <i name="atom">  45173.57650906 </i>
    <i name="e_fr_energy">   -301.59992684 </i>
    <i name="e_wo_entrp">   -301.59992684 </i>
    <i name="e_0_energy">   -301.59992684 </i>
   </energy>
  </scstep>
  <structure>
   <crystal>
    <varray name="basis" >
     <v>      11.17850000       0.00000000       0.00000000 </v>
     <v>       0.00000000       9.57460000       0.00000000 </v>
     <v>       0.00000000       0.00000000      11.18240000 </v>
    </varray>
    <i name="volume">   1196.84853820 </i>
    <varray name="rec_basis" >
     <v>       0.08945744       0.00000000       0.00000000 </v>
     <v>       0.00000000       0.10444301       0.00000000 </v>
     <v>       0.00000000       0.00000000       0.08942624 </v>
    </varray>
   </crystal>
   <varray name="positions" >
    <v>       0.37539000       0.00017000       0.43687000 </v>
    <v>       0.12461000       0.99984000       0.18687000 </v>
    <v>       0.62539000       0.99984000       0.43687000 </v>
    <v>       0.87539000       0.00017000       0.43687000 </v>
    <v>       0.62461000       0.99984000       0.18687000 </v>
    <v>       0.87461000       0.00017000       0.18687000 </v>
    <v>       0.37539000       0.00017000       0.93687000 </v>
    <v>       0.37461000       0.00017000       0.68687000 </v>
    <v>       0.62539000       0.99984000       0.93687000 </v>
    <v>       0.87539000       0.00017000       0.93687000 </v>
    <v>       0.62461000       0.99984000       0.68687000 </v>
    <v>       0.87461000       0.00017000       0.68687000 </v>
    <v>       0.37461000       0.00017000       0.18687000 </v>
    <v>       0.12461000       0.99984000       0.68687000 </v>
    <v>       0.00013000       0.29519000       0.06281000 </v>
    <v>       0.25013000       0.70481000       0.06281000 </v>
    <v>       0.24987000       0.29519000       0.31282000 </v>
    <v>       0.49987000       0.70481000       0.31282000 </v>
    <v>       0.50013000       0.29519000       0.06281000 </v>
    <v>       0.75013000       0.70481000       0.06281000 </v>
    <v>       0.74987000       0.29519000       0.31282000 </v>
    <v>       0.99987000       0.70481000       0.31282000 </v>
    <v>       0.00013000       0.29519000       0.56281000 </v>
    <v>       0.25013000       0.70481000       0.56281000 </v>
    <v>       0.24987000       0.29519000       0.81282000 </v>
    <v>       0.49987000       0.70481000       0.81282000 </v>
    <v>       0.50013000       0.29519000       0.56281000 </v>
    <v>       0.75013000       0.70481000       0.56281000 </v>
    <v>       0.74987000       0.29519000       0.81282000 </v>
    <v>       0.99987000       0.70481000       0.81282000 </v>
    <v>       0.25005000       0.32677000       0.06286000 </v>
    <v>       0.00005000       0.67323000       0.06286000 </v>
    <v>       0.49995000       0.32677000       0.31286000 </v>
    <v>       0.24995000       0.67323000       0.31286000 </v>
    <v>       0.75005000       0.32677000       0.06286000 </v>
    <v>       0.50005000       0.67323000       0.06286000 </v>
    <v>       0.99995000       0.32677000       0.31286000 </v>
    <v>       0.74995000       0.67323000       0.31286000 </v>
    <v>       0.25005000       0.32677000       0.56286000 </v>
    <v>       0.00005000       0.67323000       0.56286000 </v>
    <v>       0.49995000       0.32677000       0.81286000 </v>
    <v>       0.24995000       0.67323000       0.81286000 </v>
    <v>       0.75005000       0.32677000       0.56286000 </v>
    <v>       0.50005000       0.67323000       0.56286000 </v>
    <v>       0.99995000       0.32677000       0.81286000 </v>
    <v>       0.74995000       0.67323000       0.81286000 </v>
    <v>       0.49987000       0.07798000       0.06246000 </v>
    <v>       0.24987000       0.92202000       0.06246000 </v>
    <v>       0.25013000       0.07798000       0.31246000 </v>
    <v>       0.00013000       0.92202000       0.31246000 </v>
    <v>       0.99987000       0.07798000       0.06246000 </v>
    <v>       0.74987000       0.92202000       0.06246000 </v>
    <v>       0.75013000       0.07798000       0.31246000 </v>
    <v>       0.50013000       0.92202000       0.31246000 </v>
    <v>       0.49987000       0.07798000       0.56246000 </v>
    <v>       0.24987000       0.92202000       0.56246000 </v>
    <v>       0.25013000       0.07798000       0.81246000 </v>
    <v>       0.00013000       0.92202000       0.81246000 </v>
    <v>       0.99987000       0.07798000       0.56246000 </v>
    <v>       0.74987000       0.92202000       0.56246000 </v>
    <v>       0.75013000       0.07798000       0.81246000 </v>
    <v>       0.50013000       0.92202000       0.81246000 </v>
   </varray>
  </structure>
  <varray name="forces" >
   <v>      -0.46122038       0.06450549       0.40990552 </v>
   <v>      -0.50366062       0.00008641       0.00665972 </v>
   <v>       0.11540319       0.06646281       0.08823433 </v>
   <v>       0.44093425      -0.06633922      -0.06826608 </v>
   <v>       0.53571478      -0.00115863       0.00648060 </v>
   <v>       0.35848545      -0.00138253       0.00704390 </v>
   <v>      -0.46200089      -0.06598226      -0.40196372 </v>
   <v>       0.11631710       0.00036704       0.00738737 </v>
   <v>       0.11575280      -0.06669296      -0.07842926 </v>
   <v>       0.44117875       0.06323151       0.07744982 </v>
   <v>       0.04898595       0.00010066       0.00598846 </v>
   <v>      -0.10611791      -0.00150717       0.00757515 </v>
   <v>      -0.49218955      -0.00459415       0.03546956 </v>
   <v>      -0.04616270       0.00323604       0.03335458 </v>
   <v>       0.06782243      -1.01778825      -0.05191365 </v>
   <v>      -0.44351518      -0.03456183      -0.19028665 </v>
   <v>      -0.42977102       0.02039397       0.18121368 </v>
   <v>       0.10705695      -1.02912163       0.12821729 </v>
   <v>       0.10062865       1.04048912      -0.13501792 </v>
   <v>       0.25027198      -0.00935249       0.01120279 </v>
   <v>       0.26101215       0.00988047      -0.01904710 </v>
   <v>       0.08487058       1.02742171       0.04026197 </v>
   <v>       0.01039491      -0.02685712      -0.25196974 </v>
   <v>      -0.17351739       0.02487610      -0.18754261 </v>
   <v>      -0.16734296      -0.04310003       0.17778526 </v>
   <v>       0.02676543      -0.03529232      -0.07514151 </v>
   <v>       0.01522490       0.03392283       0.06580867 </v>
   <v>       0.12246579      -0.00349296      -0.00028262 </v>
   <v>       0.13605872       0.00420769      -0.00846494 </v>
   <v>       0.02771056       0.04604337       0.24378439 </v>
   <v>       0.31739578       0.12087848       0.06492101 </v>
   <v>      -0.01735495      -0.20911639      -0.08822363 </v>
   <v>      -0.03598157       0.10386928      -0.12120091 </v>
   <v>       0.31855272      -0.12344781      -0.06505584 </v>
   <v>      -0.26684528       0.18558964      -0.00174808 </v>
   <v>      -0.03884243      -0.10218834       0.12050819 </v>
   <v>      -0.01734307       0.20851173       0.08711978 </v>
   <v>      -0.26614947      -0.18672885       0.00160044 </v>
   <v>       0.05162231       0.13952185       0.04805830 </v>
   <v>       0.02711535      -0.16518594       0.14795275 </v>
   <v>       0.01071670       0.15067655       0.08127286 </v>
   <v>       0.05612732      -0.14136412      -0.04970688 </v>
   <v>      -0.08651563       0.18390966      -0.00248224 </v>
   <v>       0.00779139      -0.15085823      -0.07978303 </v>
   <v>       0.02549704       0.16693618      -0.14959913 </v>
   <v>      -0.08715588      -0.18480027       0.00213832 </v>
   <v>      -0.44960602      -0.84064717       0.54811027 </v>
   <v>       1.28843472       0.08593523       1.04755807 </v>
   <v>       1.28359865      -0.08254668      -1.05895322 </v>
   <v>      -0.62779919      -0.85825064      -0.53554933 </v>
   <v>      -0.61483404       0.85569812       0.53811979 </v>
   <v>      -0.23456823       0.02479988       0.00196167 </v>
   <v>      -0.24498651      -0.02284727      -0.00454872 </v>
   <v>      -0.47044755       0.84323747      -0.56863828 </v>
   <v>       0.00969247      -0.07703343      -0.07599628 </v>
   <v>       0.22600979      -0.05207341       1.07821336 </v>
   <v>       0.20657814       0.05373484      -1.09318635 </v>
   <v>      -0.14795649      -0.08988528      -1.15051754 </v>
   <v>      -0.14050511       0.08665504       1.14045250 </v>
   <v>      -0.08341278       0.01800363       0.00159553 </v>
   <v>      -0.09567025      -0.01672747      -0.00427186 </v>
   <v>      -0.00071461       0.07774207       0.07438128 </v>
  </varray>
  <varray name="stress" >
   <v>      -6.96663314      -0.03308575      -0.04590090 </v>
   <v>      -0.03308559     -14.60150523       0.06165160 </v>
   <v>      -0.04590108       0.06165201     -10.57049213 </v>
  </varray>
  <energy>
   <i name="e_fr_energy">   -317.47190396 </i>
   <i name="e_wo_entrp">   -317.47190396 </i>
   <i name="e_0_energy">      0.00000000 </i>
  </energy>
  <time name="totalsc"> 1525.97 1533.40</time>
  <eigenvalues>
   <array>
    <dimension dim="1">band</dimension>
    <dimension dim="2">kpoint</dimension>
    <dimension dim="3">spin</dimension>
    <field>eigene</field>
    <field>occ</field>
    <set>
     <set comment="spin 1">
      <set comment="kpoint 1">
       <r>  -40.2001    1.0000 </r>
       <r>  -40.0006    1.0000 </r>
       <r>  -39.9999    1.0000 </r>
       <r>  -39.9848    1.0000 </r>
       <r>  -39.9842    1.0000 </r>
       <r>  -39.8594    1.0000 </r>
       <r>  -39.8205    1.0000 </r>
       <r>  -39.7714    1.0000 </r>
       <r>  -39.5346    1.0000 </r>
       <r>  -39.5343    1.0000 </r>
       <r>  -39.4185    1.0000 </r>
       <r>  -39.3929    1.0000 </r>
       <r>  -18.9027    1.0000 </r>
       <r>  -18.8986    1.0000 </r>
       <r>  -18.8324    1.0000 </r>
       <r>  -18.8292    1.0000 </r>
       <r>  -18.8254    1.0000 </r>
       <r>  -18.8223    1.0000 </r>
       <r>  -18.7286    1.0000 </r>
       <r>  -18.7248    1.0000 </r>
       <r>  -18.7161    1.0000 </r>
       <r>  -18.7123    1.0000 </r>
       <r>  -18.6884    1.0000 </r>
       <r>  -18.6873    1.0000 </r>
       <r>  -18.6784    1.0000 </r>
       <r>  -18.6774    1.0000 </r>
       <r>  -18.6696    1.0000 </r>
       <r>  -18.6683    1.0000 </r>
       <r>  -18.6311    1.0000 </r>
       <r>  -18.6294    1.0000 </r>
       <r>  -18.6227    1.0000 </r>
       <r>  -18.6204    1.0000 </r>
       <r>  -18.6201    1.0000 </r>
       <r>  -18.6187    1.0000 </r>
       <r>  -18.6183    1.0000 </r>
       <r>  -18.6168    1.0000 </r>
       <r>  -18.6151    1.0000 </r>
       <r>  -18.6145    1.0000 </r>
       <r>  -18.6113    1.0000 </r>
       <r>  -18.6111    1.0000 </r>
       <r>  -18.6099    1.0000 </r>
       <r>  -18.6071    1.0000 </r>
       <r>  -18.6046    1.0000 </r>
       <r>  -18.6043    1.0000 </r>
       <r>  -18.6038    1.0000 </r>
       <r>  -18.6035    1.0000 </r>
       <r>  -18.6003    1.0000 </r>
       <r>  -18.5965    1.0000 </r>
       <r>  -18.5951    1.0000 </r>
       <r>  -18.5944    1.0000 </r>
       <r>  -18.5931    1.0000 </r>
       <r>  -18.5931    1.0000 </r>
       <r>  -18.5447    1.0000 </r>
       <r>  -18.5403    1.0000 </r>
       <r>  -18.5312    1.0000 </r>
       <r>  -18.5272    1.0000 </r>
       <r>  -18.5271    1.0000 </r>
       <r>  -18.5255    1.0000 </r>
       <r>  -18.5223    1.0000 </r>
       <r>  -18.5169    1.0000 </r>
       <r>  -18.5168    1.0000 </r>
       <r>  -18.5156    1.0000 </r>
       <r>  -18.4725    1.0000 </r>
       <r>  -18.4708    1.0000 </r>
       <r>  -18.4698    1.0000 </r>
       <r>  -18.4680    1.0000 </r>
       <r>  -18.4620    1.0000 </r>
       <r>  -18.4580    1.0000 </r>
       <r>  -18.4500    1.0000 </r>
       <r>  -18.4493    1.0000 </r>
       <r>  -18.4491    1.0000 </r>
       <r>  -18.4487    1.0000 </r>
       <r>  -18.4485    1.0000 </r>
       <r>  -18.4484    1.0000 </r>
       <r>  -18.4482    1.0000 </r>
       <r>  -18.4475    1.0000 </r>
       <r>  -18.4471    1.0000 </r>
       <r>  -18.4436    1.0000 </r>
       <r>  -18.3885    1.0000 </r>
       <r>  -18.3832    1.0000 </r>
       <r>  -18.3705    1.0000 </r>
       <r>  -18.3691    1.0000 </r>
       <r>  -18.3654    1.0000 </r>
       <r>  -18.3651    1.0000 </r>
       <r>  -18.3561    1.0000 </r>
       <r>  -18.3525    1.0000 </r>
       <r>  -18.2768    1.0000 </r>
       <r>  -18.2726    1.0000 </r>
       <r>  -18.1618    1.0000 </r>
       <r>  -18.1577    1.0000 </r>
       <r>  -18.1484    1.0000 </r>
       <r>  -18.1442    1.0000 </r>
       <r>  -13.5315    1.0000 </r>
       <r>  -13.4230    1.0000 </r>
       <r>  -12.8482    1.0000 </r>
       <r>  -12.7822    1.0000 </r>
       <r>  -12.7273    1.0000 </r>
       <r>  -12.7182    1.0000 </r>
       <r>  -12.7020    1.0000 </r>
       <r>  -12.6850    1.0000 </r>
       <r>  -12.6345    1.0000 </r>
       <r>  -12.6266    1.0000 </r>
       <r>  -12.6199    1.0000 </r>
       <r>  -12.5761    1.0000 </r>
       <r>  -12.5740    1.0000 </r>
       <r>  -12.5336    1.0000 </r>
       <r>  -11.9378    1.0000 </r>
       <r>  -11.8743    1.0000 </r>
       <r>   -9.2953    1.0000 </r>
       <r>   -9.0013    1.0000 </r>
       <r>   -8.5070    1.0000 </r>
       <r>   -8.4670    1.0000 </r>
       <r>   -8.4552    1.0000 </r>
       <r>   -8.4120    1.0000 </r>
       <r>   -8.2837    1.0000 </r>
       <r>   -8.2483    1.0000 </r>
       <r>   -8.2289    1.0000 </r>
       <r>   -8.1881    1.0000 </r>
       <r>   -7.9985    1.0000 </r>
       <r>   -7.9962    1.0000 </r>
       <r>   -7.9633    1.0000 </r>
       <r>   -7.9625    1.0000 </r>
       <r>   -7.3262    1.0000 </r>
       <r>   -7.3252    1.0000 </r>
       <r>   -6.3390    1.0000 </r>
       <r>   -6.3345    1.0000 </r>
       <r>   -6.3150    1.0000 </r>
       <r>   -6.3120    1.0000 </r>
       <r>   -5.4979    1.0000 </r>
       <r>   -5.4638    1.0000 </r>
       <r>   -5.3312    1.0000 </r>
       <r>   -5.3113    1.0000 </r>
       <r>   -5.3100    1.0000 </r>
       <r>   -5.2176    1.0000 </r>
       <r>   -5.1815    1.0000 </r>
       <r>   -5.1417    1.0000 </r>
       <r>   -5.0912    1.0000 </r>
       <r>   -5.0227    1.0000 </r>
       <r>   -3.7759    1.0000 </r>
       <r>   -3.6209    1.0000 </r>
       <r>   -1.3476    1.0000 </r>
       <r>   -1.3313    1.0000 </r>
       <r>   -1.0338    1.0000 </r>
       <r>   -1.0088    1.0000 </r>
       <r>   -0.5133    1.0000 </r>
       <r>   -0.4662    1.0000 </r>
       <r>   -0.4366    1.0000 </r>
       <r>   -0.4204    1.0000 </r>
       <r>   -0.1564    1.0000 </r>
       <r>   -0.1252    1.0000 </r>
       <r>   -0.1220    1.0000 </r>
       <r>   -0.1066    1.0000 </r>
       <r>    0.0676    1.0000 </r>
       <r>    0.3043    1.0000 </r>
       <r>    0.3841    1.0000 </r>
       <r>    0.4901    1.0000 </r>
       <r>    0.5227    1.0000 </r>
       <r>    0.5895    1.0000 </r>
       <r>    0.6605    1.0000 </r>
       <r>    0.7482    1.0000 </r>
       <r>    0.7489    1.0000 </r>
       <r>    0.7682    1.0000 </r>
       <r>    0.7758    1.0000 </r>
       <r>    0.8132    1.0000 </r>
       <r>    0.9046    1.0000 </r>
       <r>    0.9065    1.0000 </r>
       <r>    0.9743    1.0000 </r>
       <r>    1.0026    1.0000 </r>
       <r>    1.0079    1.0000 </r>
       <r>    1.0627    1.0000 </r>
       <r>    1.1059    1.0000 </r>
       <r>    1.1290    1.0000 </r>
       <r>    1.1597    1.0000 </r>
       <r>    1.2533    1.0000 </r>
       <r>    1.2799    1.0000 </r>
       <r>    1.3448    1.0000 </r>
       <r>    1.4239    1.0000 </r>
       <r>    1.4491    1.0000 </r>
       <r>    1.4823    1.0000 </r>
       <r>    1.5042    1.0000 </r>
       <r>    1.5503    1.0000 </r>
       <r>    1.5832    1.0000 </r>
       <r>    1.6363    1.0000 </r>
       <r>    1.6636    1.0000 </r>
       <r>    1.6840    1.0000 </r>
       <r>    1.8019    1.0000 </r>
       <r>    1.8190    1.0000 </r>
       <r>    1.8402    1.0000 </r>
       <r>    1.9037    1.0000 </r>
       <r>    1.9101    1.0000 </r>
       <r>    1.9364    1.0000 </r>
       <r>    1.9538    1.0000 </r>
       <r>    2.1277    1.0000 </r>
       <r>    2.1794    1.0000 </r>
       <r>    2.1968    1.0000 </r>
       <r>    2.2937    1.0000 </r>
       <r>    2.3580    1.0000 </r>
       <r>    2.3954    1.0000 </r>
       <r>    2.5584    1.0000 </r>
       <r>    2.5658    1.0000 </r>
       <r>    2.6017    1.0000 </r>
       <r>    2.6070    1.0000 </r>
       <r>    2.6206    1.0000 </r>
       <r>    2.6210    1.0000 </r>
       <r>    2.6484    1.0000 </r>
       <r>    2.6680    1.0000 </r>
       <r>    2.7132    1.0000 </r>
       <r>    2.7429    1.0000 </r>
       <r>    2.7567    1.0000 </r>
       <r>    2.7735    1.0000 </r>
       <r>    2.7920    1.0000 </r>
       <r>    2.8185    1.0000 </r>
       <r>    2.8577    1.0000 </r>
       <r>    2.9294    1.0000 </r>
       <r>    2.9369    1.0000 </r>
       <r>    2.9492    1.0000 </r>
       <r>    2.9854    1.0000 </r>
       <r>    3.0159    1.0000 </r>
       <r>    3.0994    1.0000 </r>
       <r>    3.1330    1.0000 </r>
       <r>    3.1363    1.0000 </r>
       <r>    3.1596    1.0000 </r>
       <r>    3.1680    1.0000 </r>
       <r>    3.2082    1.0000 </r>
       <r>    3.2142    1.0000 </r>
       <r>    3.2669    1.0000 </r>
       <r>    3.3302    1.0000 </r>
       <r>    3.3322    1.0000 </r>
       <r>    3.4263    1.0000 </r>
       <r>    3.4874    1.0000 </r>
       <r>    3.4920    1.0000 </r>
       <r>    3.5911    1.0000 </r>
       <r>    4.2224    1.0000 </r>
       <r>    4.2269    1.0000 </r>
       <r>    4.2453    1.0000 </r>
       <r>    4.2576    1.0000 </r>
       <r>    5.1265    0.0000 </r>
       <r>    5.1273    0.0000 </r>
       <r>    5.1527    0.0000 </r>
       <r>    5.1677    0.0000 </r>
       <r>    5.7846    0.0000 </r>
       <r>    5.7890    0.0000 </r>
       <r>    5.8244    0.0000 </r>
       <r>    5.8267    0.0000 </r>
       <r>    6.1268    0.0000 </r>
       <r>    6.1443    0.0000 </r>
       <r>    6.1564    0.0000 </r>
       <r>    6.1802    0.0000 </r>
       <r>    6.2631    0.0000 </r>
       <r>    6.2730    0.0000 </r>
       <r>    6.2969    0.0000 </r>
       <r>    6.3007    0.0000 </r>
       <r>    7.1921    0.0000 </r>
       <r>    7.2469    0.0000 </r>
       <r>    7.2725    0.0000 </r>
       <r>    7.3227    0.0000 </r>
       <r>    7.8334    0.0000 </r>
       <r>    7.9241    0.0000 </r>
       <r>    7.9504    0.0000 </r>
       <r>    7.9812    0.0000 </r>
       <r>    8.0263    0.0000 </r>
       <r>    8.0865    0.0000 </r>
       <r>    8.2173    0.0000 </r>
       <r>    8.2224    0.0000 </r>
       <r>    8.5214    0.0000 </r>
       <r>    8.6029    0.0000 </r>
       <r>    8.7116    0.0000 </r>
       <r>    8.7981    0.0000 </r>
       <r>    8.8165    0.0000 </r>
       <r>    8.9426    0.0000 </r>
       <r>    9.0170    0.0000 </r>
       <r>    9.0268    0.0000 </r>
       <r>    9.0432    0.0000 </r>
       <r>    9.0532    0.0000 </r>
       <r>    9.1221    0.0000 </r>
       <r>    9.1436    0.0000 </r>
       <r>    9.1514    0.0000 </r>
       <r>    9.2195    0.0000 </r>
       <r>    9.2391    0.0000 </r>
       <r>    9.2740    0.0000 </r>
       <r>    9.4919    0.0000 </r>
       <r>    9.5422    0.0000 </r>
       <r>    9.5467    0.0000 </r>
       <r>    9.6389    0.0000 </r>
       <r>    9.6991    0.0000 </r>
       <r>    9.7057    0.0000 </r>
       <r>    9.7282    0.0000 </r>
       <r>    9.8865    0.0000 </r>
       <r>   10.1619    0.0000 </r>
       <r>   10.2718    0.0000 </r>
       <r>   10.2775    0.0000 </r>
       <r>   10.3142    0.0000 </r>
       <r>   10.5084    0.0000 </r>
       <r>   10.5459    0.0000 </r>
       <r>   10.6166    0.0000 </r>
       <r>   10.6271    0.0000 </r>
       <r>   10.6590    0.0000 </r>
       <r>   10.7311    0.0000 </r>
       <r>   11.2033    0.0000 </r>
       <r>   11.2974    0.0000 </r>
       <r>   11.4442    0.0000 </r>
       <r>   11.4801    0.0000 </r>
       <r>   11.5871    0.0000 </r>
       <r>   11.6321    0.0000 </r>
       <r>   11.7097    0.0000 </r>
       <r>   11.8045    0.0000 </r>
       <r>   11.8186    0.0000 </r>
       <r>   11.9681    0.0000 </r>
      </set>
      <set comment="kpoint 2">
       <r>  -40.2001    1.0000 </r>
       <r>  -40.0006    1.0000 </r>
       <r>  -39.9999    1.0000 </r>
       <r>  -39.9848    1.0000 </r>
       <r>  -39.9842    1.0000 </r>
       <r>  -39.8594    1.0000 </r>
       <r>  -39.8205    1.0000 </r>
       <r>  -39.7714    1.0000 </r>
       <r>  -39.5345    1.0000 </r>
       <r>  -39.5343    1.0000 </r>
       <r>  -39.4185    1.0000 </r>
       <r>  -39.3929    1.0000 </r>
       <r>  -18.9027    1.0000 </r>
       <r>  -18.8986    1.0000 </r>
       <r>  -18.8324    1.0000 </r>
       <r>  -18.8292    1.0000 </r>
       <r>  -18.8254    1.0000 </r>
       <r>  -18.8223    1.0000 </r>
       <r>  -18.7286    1.0000 </r>
       <r>  -18.7248    1.0000 </r>
       <r>  -18.7161    1.0000 </r>
       <r>  -18.7123    1.0000 </r>
       <r>  -18.6882    1.0000 </r>
       <r>  -18.6870    1.0000 </r>
       <r>  -18.6784    1.0000 </r>
       <r>  -18.6774    1.0000 </r>
       <r>  -18.6695    1.0000 </r>
       <r>  -18.6682    1.0000 </r>
       <r>  -18.6316    1.0000 </r>
       <r>  -18.6299    1.0000 </r>
       <r>  -18.6226    1.0000 </r>
       <r>  -18.6210    1.0000 </r>
       <r>  -18.6199    1.0000 </r>
       <r>  -18.6193    1.0000 </r>
       <r>  -18.6187    1.0000 </r>
       <r>  -18.6172    1.0000 </r>
       <r>  -18.6140    1.0000 </r>
       <r>  -18.6130    1.0000 </r>
       <r>  -18.6120    1.0000 </r>
       <r>  -18.6117    1.0000 </r>
       <r>  -18.6112    1.0000 </r>
       <r>  -18.6090    1.0000 </r>
       <r>  -18.6040    1.0000 </r>
       <r>  -18.6038    1.0000 </r>
       <r>  -18.6027    1.0000 </r>
       <r>  -18.6017    1.0000 </r>
       <r>  -18.6000    1.0000 </r>
       <r>  -18.5970    1.0000 </r>
       <r>  -18.5949    1.0000 </r>
       <r>  -18.5944    1.0000 </r>
       <r>  -18.5931    1.0000 </r>
       <r>  -18.5931    1.0000 </r>
       <r>  -18.5447    1.0000 </r>
       <r>  -18.5403    1.0000 </r>
       <r>  -18.5313    1.0000 </r>
       <r>  -18.5272    1.0000 </r>
       <r>  -18.5271    1.0000 </r>
       <r>  -18.5255    1.0000 </r>
       <r>  -18.5223    1.0000 </r>
       <r>  -18.5169    1.0000 </r>
       <r>  -18.5168    1.0000 </r>
       <r>  -18.5156    1.0000 </r>
       <r>  -18.4725    1.0000 </r>
       <r>  -18.4708    1.0000 </r>
       <r>  -18.4698    1.0000 </r>
       <r>  -18.4680    1.0000 </r>
       <r>  -18.4620    1.0000 </r>
       <r>  -18.4580    1.0000 </r>
       <r>  -18.4500    1.0000 </r>
       <r>  -18.4493    1.0000 </r>
       <r>  -18.4491    1.0000 </r>
       <r>  -18.4487    1.0000 </r>
       <r>  -18.4485    1.0000 </r>
       <r>  -18.4484    1.0000 </r>
       <r>  -18.4482    1.0000 </r>
       <r>  -18.4475    1.0000 </r>
       <r>  -18.4471    1.0000 </r>
       <r>  -18.4436    1.0000 </r>
       <r>  -18.3885    1.0000 </r>
       <r>  -18.3832    1.0000 </r>
       <r>  -18.3705    1.0000 </r>
       <r>  -18.3691    1.0000 </r>
       <r>  -18.3654    1.0000 </r>
       <r>  -18.3651    1.0000 </r>
       <r>  -18.3561    1.0000 </r>
       <r>  -18.3525    1.0000 </r>
       <r>  -18.2768    1.0000 </r>
       <r>  -18.2726    1.0000 </r>
       <r>  -18.1618    1.0000 </r>
       <r>  -18.1577    1.0000 </r>
       <r>  -18.1484    1.0000 </r>
       <r>  -18.1442    1.0000 </r>
       <r>  -13.5313    1.0000 </r>
       <r>  -13.4229    1.0000 </r>
       <r>  -12.8363    1.0000 </r>
       <r>  -12.7899    1.0000 </r>
       <r>  -12.7499    1.0000 </r>
       <r>  -12.7217    1.0000 </r>
       <r>  -12.6896    1.0000 </r>
       <r>  -12.6768    1.0000 </r>
       <r>  -12.6308    1.0000 </r>
       <r>  -12.6285    1.0000 </r>
       <r>  -12.6149    1.0000 </r>
       <r>  -12.5808    1.0000 </r>
       <r>  -12.5754    1.0000 </r>
       <r>  -12.5332    1.0000 </r>
       <r>  -11.9378    1.0000 </r>
       <r>  -11.8743    1.0000 </r>
       <r>   -9.1511    1.0000 </r>
       <r>   -8.9952    1.0000 </r>
       <r>   -8.8767    1.0000 </r>
       <r>   -8.7175    1.0000 </r>
       <r>   -8.3679    1.0000 </r>
       <r>   -8.3643    1.0000 </r>
       <r>   -8.2339    1.0000 </r>
       <r>   -8.2256    1.0000 </r>
       <r>   -8.1661    1.0000 </r>
       <r>   -8.1633    1.0000 </r>
       <r>   -8.0310    1.0000 </r>
       <r>   -8.0250    1.0000 </r>
       <r>   -7.7204    1.0000 </r>
       <r>   -7.6082    1.0000 </r>
       <r>   -7.6044    1.0000 </r>
       <r>   -7.4914    1.0000 </r>
       <r>   -5.9881    1.0000 </r>
       <r>   -5.9846    1.0000 </r>
       <r>   -5.8110    1.0000 </r>
       <r>   -5.8080    1.0000 </r>
       <r>   -5.7719    1.0000 </r>
       <r>   -5.7679    1.0000 </r>
       <r>   -5.7048    1.0000 </r>
       <r>   -5.6376    1.0000 </r>
       <r>   -5.6237    1.0000 </r>
       <r>   -5.6192    1.0000 </r>
       <r>   -5.5029    1.0000 </r>
       <r>   -5.4271    1.0000 </r>
       <r>   -4.4753    1.0000 </r>
       <r>   -4.3151    1.0000 </r>
       <r>   -4.3112    1.0000 </r>
       <r>   -4.1422    1.0000 </r>
       <r>   -1.1884    1.0000 </r>
       <r>   -1.0039    1.0000 </r>
       <r>   -0.8615    1.0000 </r>
       <r>   -0.6884    1.0000 </r>
       <r>   -0.3845    1.0000 </r>
       <r>   -0.1982    1.0000 </r>
       <r>   -0.0095    1.0000 </r>
       <r>    0.0735    1.0000 </r>
       <r>    0.1356    1.0000 </r>
       <r>    0.1882    1.0000 </r>
       <r>    0.2112    1.0000 </r>
       <r>    0.2362    1.0000 </r>
       <r>    0.2515    1.0000 </r>
       <r>    0.3065    1.0000 </r>
       <r>    0.4044    1.0000 </r>
       <r>    0.4341    1.0000 </r>
       <r>    0.4879    1.0000 </r>
       <r>    0.5136    1.0000 </r>
       <r>    0.5660    1.0000 </r>
       <r>    0.5945    1.0000 </r>
       <r>    0.6298    1.0000 </r>
       <r>    0.6486    1.0000 </r>
       <r>    0.6637    1.0000 </r>
       <r>    0.7324    1.0000 </r>
       <r>    0.7348    1.0000 </r>
       <r>    0.9413    1.0000 </r>
       <r>    0.9470    1.0000 </r>
       <r>    1.0708    1.0000 </r>
       <r>    1.0943    1.0000 </r>
       <r>    1.1408    1.0000 </r>
       <r>    1.1422    1.0000 </r>
       <r>    1.1837    1.0000 </r>
       <r>    1.1922    1.0000 </r>
       <r>    1.2338    1.0000 </r>
       <r>    1.2785    1.0000 </r>
       <r>    1.3055    1.0000 </r>
       <r>    1.3198    1.0000 </r>
       <r>    1.3626    1.0000 </r>
       <r>    1.5063    1.0000 </r>
       <r>    1.5086    1.0000 </r>
       <r>    1.5121    1.0000 </r>
       <r>    1.5562    1.0000 </r>
       <r>    1.6295    1.0000 </r>
       <r>    1.6569    1.0000 </r>
       <r>    1.6720    1.0000 </r>
       <r>    1.7331    1.0000 </r>
       <r>    1.7659    1.0000 </r>
       <r>    1.8033    1.0000 </r>
       <r>    1.8108    1.0000 </r>
       <r>    1.9113    1.0000 </r>
       <r>    1.9152    1.0000 </r>
       <r>    1.9278    1.0000 </r>
       <r>    2.0283    1.0000 </r>
       <r>    2.0378    1.0000 </r>
       <r>    2.0487    1.0000 </r>
       <r>    2.0903    1.0000 </r>
       <r>    2.1325    1.0000 </r>
       <r>    2.2073    1.0000 </r>
       <r>    2.2305    1.0000 </r>
       <r>    2.2697    1.0000 </r>
       <r>    2.3622    1.0000 </r>
       <r>    2.3789    1.0000 </r>
       <r>    2.4427    1.0000 </r>
       <r>    2.4622    1.0000 </r>
       <r>    2.4818    1.0000 </r>
       <r>    2.5377    1.0000 </r>
       <r>    2.5708    1.0000 </r>
       <r>    2.5762    1.0000 </r>
       <r>    2.6544    1.0000 </r>
       <r>    2.6718    1.0000 </r>
       <r>    2.7306    1.0000 </r>
       <r>    2.7540    1.0000 </r>
       <r>    2.7731    1.0000 </r>
       <r>    2.8182    1.0000 </r>
       <r>    2.8405    1.0000 </r>
       <r>    2.8889    1.0000 </r>
       <r>    2.9232    1.0000 </r>
       <r>    2.9257    1.0000 </r>
       <r>    2.9697    1.0000 </r>
       <r>    2.9943    1.0000 </r>
       <r>    3.0555    1.0000 </r>
       <r>    3.0730    1.0000 </r>
       <r>    3.1382    1.0000 </r>
       <r>    3.1457    1.0000 </r>
       <r>    3.1825    1.0000 </r>
       <r>    3.2338    1.0000 </r>
       <r>    3.3531    1.0000 </r>
       <r>    3.4380    1.0000 </r>
       <r>    3.4795    1.0000 </r>
       <r>    3.4926    1.0000 </r>
       <r>    3.5441    1.0000 </r>
       <r>    3.5519    1.0000 </r>
       <r>    3.5950    1.0000 </r>
       <r>    3.6303    1.0000 </r>
       <r>    3.7093    1.0000 </r>
       <r>    3.7392    1.0000 </r>
       <r>    5.5933    0.0000 </r>
       <r>    5.5948    0.0000 </r>
       <r>    5.7436    0.0000 </r>
       <r>    5.7532    0.0000 </r>
       <r>    5.7771    0.0000 </r>
       <r>    5.7783    0.0000 </r>
       <r>    5.9313    0.0000 </r>
       <r>    5.9392    0.0000 </r>
       <r>    7.2540    0.0000 </r>
       <r>    7.2912    0.0000 </r>
       <r>    7.2945    0.0000 </r>
       <r>    7.3809    0.0000 </r>
       <r>    7.4274    0.0000 </r>
       <r>    7.4410    0.0000 </r>
       <r>    7.4803    0.0000 </r>
       <r>    7.5103    0.0000 </r>
       <r>    7.5209    0.0000 </r>
       <r>    7.5462    0.0000 </r>
       <r>    7.6258    0.0000 </r>
       <r>    7.6302    0.0000 </r>
       <r>    7.8357    0.0000 </r>
       <r>    7.8456    0.0000 </r>
       <r>    7.8835    0.0000 </r>
       <r>    7.8992    0.0000 </r>
       <r>    7.9200    0.0000 </r>
       <r>    7.9320    0.0000 </r>
       <r>    7.9973    0.0000 </r>
       <r>    8.0054    0.0000 </r>
       <r>    8.0345    0.0000 </r>
       <r>    8.0593    0.0000 </r>
       <r>    8.0855    0.0000 </r>
       <r>    8.1314    0.0000 </r>
       <r>    8.2733    0.0000 </r>
       <r>    8.4269    0.0000 </r>
       <r>    8.4628    0.0000 </r>
       <r>    8.6407    0.0000 </r>
       <r>    8.6766    0.0000 </r>
       <r>    8.7414    0.0000 </r>
       <r>    8.7735    0.0000 </r>
       <r>    8.7834    0.0000 </r>
       <r>    8.8043    0.0000 </r>
       <r>    8.8988    0.0000 </r>
       <r>    8.9547    0.0000 </r>
       <r>    8.9654    0.0000 </r>
       <r>    9.1319    0.0000 </r>
       <r>    9.3299    0.0000 </r>
       <r>    9.4008    0.0000 </r>
       <r>    9.4839    0.0000 </r>
       <r>    9.6163    0.0000 </r>
       <r>    9.8168    0.0000 </r>
       <r>   10.2327    0.0000 </r>
       <r>   10.2694    0.0000 </r>
       <r>   10.3566    0.0000 </r>
       <r>   10.5073    0.0000 </r>
       <r>   10.5914    0.0000 </r>
       <r>   10.6133    0.0000 </r>
       <r>   10.7586    0.0000 </r>
       <r>   10.7870    0.0000 </r>
       <r>   10.8095    0.0000 </r>
       <r>   10.8294    0.0000 </r>
       <r>   10.8714    0.0000 </r>
       <r>   10.9149    0.0000 </r>
       <r>   11.1422    0.0000 </r>
       <r>   11.1813    0.0000 </r>
       <r>   11.2052    0.0000 </r>
       <r>   11.2427    0.0000 </r>
       <r>   11.3447    0.0000 </r>
       <r>   11.3546    0.0000 </r>
       <r>   11.3705    0.0000 </r>
       <r>   11.4851    0.0000 </r>
       <r>   11.6110    0.0000 </r>
       <r>   11.7202    0.0000 </r>
      </set>
      <set comment="kpoint 3">
       <r>  -40.2001    1.0000 </r>
       <r>  -40.0006    1.0000 </r>
       <r>  -39.9999    1.0000 </r>
       <r>  -39.9848    1.0000 </r>
       <r>  -39.9842    1.0000 </r>
       <r>  -39.8594    1.0000 </r>
       <r>  -39.8205    1.0000 </r>
       <r>  -39.7714    1.0000 </r>
       <r>  -39.5345    1.0000 </r>
       <r>  -39.5343    1.0000 </r>
       <r>  -39.4185    1.0000 </r>
       <r>  -39.3929    1.0000 </r>
       <r>  -18.9029    1.0000 </r>
       <r>  -18.8984    1.0000 </r>
       <r>  -18.8324    1.0000 </r>
       <r>  -18.8292    1.0000 </r>
       <r>  -18.8254    1.0000 </r>
       <r>  -18.8223    1.0000 </r>
       <r>  -18.7286    1.0000 </r>
       <r>  -18.7248    1.0000 </r>
       <r>  -18.7161    1.0000 </r>
       <r>  -18.7123    1.0000 </r>
       <r>  -18.6884    1.0000 </r>
       <r>  -18.6873    1.0000 </r>
       <r>  -18.6784    1.0000 </r>
       <r>  -18.6774    1.0000 </r>
       <r>  -18.6696    1.0000 </r>
       <r>  -18.6684    1.0000 </r>
       <r>  -18.6311    1.0000 </r>
       <r>  -18.6294    1.0000 </r>
       <r>  -18.6229    1.0000 </r>
       <r>  -18.6205    1.0000 </r>
       <r>  -18.6198    1.0000 </r>
       <r>  -18.6187    1.0000 </r>
       <r>  -18.6184    1.0000 </r>
       <r>  -18.6168    1.0000 </r>
       <r>  -18.6151    1.0000 </r>
       <r>  -18.6145    1.0000 </r>
       <r>  -18.6113    1.0000 </r>
       <r>  -18.6111    1.0000 </r>
       <r>  -18.6099    1.0000 </r>
       <r>  -18.6071    1.0000 </r>
       <r>  -18.6046    1.0000 </r>
       <r>  -18.6043    1.0000 </r>
       <r>  -18.6038    1.0000 </r>
       <r>  -18.6035    1.0000 </r>
       <r>  -18.6003    1.0000 </r>
       <r>  -18.5965    1.0000 </r>
       <r>  -18.5955    1.0000 </r>
       <r>  -18.5940    1.0000 </r>
       <r>  -18.5931    1.0000 </r>
       <r>  -18.5930    1.0000 </r>
       <r>  -18.5447    1.0000 </r>
       <r>  -18.5403    1.0000 </r>
       <r>  -18.5312    1.0000 </r>
       <r>  -18.5271    1.0000 </r>
       <r>  -18.5271    1.0000 </r>
       <r>  -18.5255    1.0000 </r>
       <r>  -18.5224    1.0000 </r>
       <r>  -18.5168    1.0000 </r>
       <r>  -18.5168    1.0000 </r>
       <r>  -18.5156    1.0000 </r>
       <r>  -18.4725    1.0000 </r>
       <r>  -18.4708    1.0000 </r>
       <r>  -18.4698    1.0000 </r>
       <r>  -18.4680    1.0000 </r>
       <r>  -18.4619    1.0000 </r>
       <r>  -18.4580    1.0000 </r>
       <r>  -18.4500    1.0000 </r>
       <r>  -18.4493    1.0000 </r>
       <r>  -18.4491    1.0000 </r>
       <r>  -18.4487    1.0000 </r>
       <r>  -18.4485    1.0000 </r>
       <r>  -18.4484    1.0000 </r>
       <r>  -18.4482    1.0000 </r>
       <r>  -18.4475    1.0000 </r>
       <r>  -18.4472    1.0000 </r>
       <r>  -18.4436    1.0000 </r>
       <r>  -18.3885    1.0000 </r>
       <r>  -18.3832    1.0000 </r>
       <r>  -18.3705    1.0000 </r>
       <r>  -18.3691    1.0000 </r>
       <r>  -18.3654    1.0000 </r>
       <r>  -18.3651    1.0000 </r>
       <r>  -18.3561    1.0000 </r>
       <r>  -18.3525    1.0000 </r>
       <r>  -18.2769    1.0000 </r>
       <r>  -18.2726    1.0000 </r>
       <r>  -18.1618    1.0000 </r>
       <r>  -18.1577    1.0000 </r>
       <r>  -18.1484    1.0000 </r>
       <r>  -18.1443    1.0000 </r>
       <r>  -13.5312    1.0000 </r>
       <r>  -13.4232    1.0000 </r>
       <r>  -12.8463    1.0000 </r>
       <r>  -12.7817    1.0000 </r>
       <r>  -12.7276    1.0000 </r>
       <r>  -12.7181    1.0000 </r>
       <r>  -12.7013    1.0000 </r>
       <r>  -12.6853    1.0000 </r>
       <r>  -12.6344    1.0000 </r>
       <r>  -12.6267    1.0000 </r>
       <r>  -12.6212    1.0000 </r>
       <r>  -12.5765    1.0000 </r>
       <r>  -12.5749    1.0000 </r>
       <r>  -12.5345    1.0000 </r>
       <r>  -11.9368    1.0000 </r>
       <r>  -11.8759    1.0000 </r>
       <r>   -9.2862    1.0000 </r>
       <r>   -9.0075    1.0000 </r>
       <r>   -8.5246    1.0000 </r>
       <r>   -8.4863    1.0000 </r>
       <r>   -8.4734    1.0000 </r>
       <r>   -8.4290    1.0000 </r>
       <r>   -8.2638    1.0000 </r>
       <r>   -8.2275    1.0000 </r>
       <r>   -8.2081    1.0000 </r>
       <r>   -8.1690    1.0000 </r>
       <r>   -8.0025    1.0000 </r>
       <r>   -8.0001    1.0000 </r>
       <r>   -7.9662    1.0000 </r>
       <r>   -7.9654    1.0000 </r>
       <r>   -7.3292    1.0000 </r>
       <r>   -7.3278    1.0000 </r>
       <r>   -6.3306    1.0000 </r>
       <r>   -6.3238    1.0000 </r>
       <r>   -6.3073    1.0000 </r>
       <r>   -6.3000    1.0000 </r>
       <r>   -5.5141    1.0000 </r>
       <r>   -5.4489    1.0000 </r>
       <r>   -5.3711    1.0000 </r>
       <r>   -5.3571    1.0000 </r>
       <r>   -5.3471    1.0000 </r>
       <r>   -5.2381    1.0000 </r>
       <r>   -5.1229    1.0000 </r>
       <r>   -5.0856    1.0000 </r>
       <r>   -5.0534    1.0000 </r>
       <r>   -4.9754    1.0000 </r>
       <r>   -3.8474    1.0000 </r>
       <r>   -3.5381    1.0000 </r>
       <r>   -1.2956    1.0000 </r>
       <r>   -1.2725    1.0000 </r>
       <r>   -1.1058    1.0000 </r>
       <r>   -1.0885    1.0000 </r>
       <r>   -0.3989    1.0000 </r>
       <r>   -0.3729    1.0000 </r>
       <r>   -0.3691    1.0000 </r>
       <r>   -0.3545    1.0000 </r>
       <r>   -0.3287    1.0000 </r>
       <r>   -0.2673    1.0000 </r>
       <r>   -0.2213    1.0000 </r>
       <r>   -0.1942    1.0000 </r>
       <r>   -0.0718    1.0000 </r>
       <r>   -0.0044    1.0000 </r>
       <r>    0.2203    1.0000 </r>
       <r>    0.2678    1.0000 </r>
       <r>    0.2894    1.0000 </r>
       <r>    0.4032    1.0000 </r>
       <r>    0.4565    1.0000 </r>
       <r>    0.4843    1.0000 </r>
       <r>    0.5710    1.0000 </r>
       <r>    0.6833    1.0000 </r>
       <r>    0.7667    1.0000 </r>
       <r>    0.7855    1.0000 </r>
       <r>    0.7974    1.0000 </r>
       <r>    0.8361    1.0000 </r>
       <r>    0.8546    1.0000 </r>
       <r>    0.9397    1.0000 </r>
       <r>    1.0878    1.0000 </r>
       <r>    1.1765    1.0000 </r>
       <r>    1.2099    1.0000 </r>
       <r>    1.2530    1.0000 </r>
       <r>    1.2993    1.0000 </r>
       <r>    1.3169    1.0000 </r>
       <r>    1.4347    1.0000 </r>
       <r>    1.4462    1.0000 </r>
       <r>    1.5586    1.0000 </r>
       <r>    1.6528    1.0000 </r>
       <r>    1.6881    1.0000 </r>
       <r>    1.7275    1.0000 </r>
       <r>    1.7607    1.0000 </r>
       <r>    1.7906    1.0000 </r>
       <r>    1.8190    1.0000 </r>
       <r>    1.8446    1.0000 </r>
       <r>    1.8505    1.0000 </r>
       <r>    1.8606    1.0000 </r>
       <r>    1.8723    1.0000 </r>
       <r>    1.8854    1.0000 </r>
       <r>    1.9221    1.0000 </r>
       <r>    1.9303    1.0000 </r>
       <r>    2.0433    1.0000 </r>
       <r>    2.0956    1.0000 </r>
       <r>    2.1777    1.0000 </r>
       <r>    2.2052    1.0000 </r>
       <r>    2.2361    1.0000 </r>
       <r>    2.3428    1.0000 </r>
       <r>    2.4856    1.0000 </r>
       <r>    2.4910    1.0000 </r>
       <r>    2.5192    1.0000 </r>
       <r>    2.5576    1.0000 </r>
       <r>    2.5887    1.0000 </r>
       <r>    2.5970    1.0000 </r>
       <r>    2.6097    1.0000 </r>
       <r>    2.6123    1.0000 </r>
       <r>    2.6198    1.0000 </r>
       <r>    2.6339    1.0000 </r>
       <r>    2.6761    1.0000 </r>
       <r>    2.7220    1.0000 </r>
       <r>    2.7292    1.0000 </r>
       <r>    2.7801    1.0000 </r>
       <r>    2.8180    1.0000 </r>
       <r>    2.8288    1.0000 </r>
       <r>    2.8406    1.0000 </r>
       <r>    2.8886    1.0000 </r>
       <r>    2.8914    1.0000 </r>
       <r>    2.9494    1.0000 </r>
       <r>    2.9672    1.0000 </r>
       <r>    3.0014    1.0000 </r>
       <r>    3.0285    1.0000 </r>
       <r>    3.0510    1.0000 </r>
       <r>    3.0661    1.0000 </r>
       <r>    3.0900    1.0000 </r>
       <r>    3.1789    1.0000 </r>
       <r>    3.3310    1.0000 </r>
       <r>    3.3547    1.0000 </r>
       <r>    3.4028    1.0000 </r>
       <r>    3.4361    1.0000 </r>
       <r>    3.4620    1.0000 </r>
       <r>    3.4822    1.0000 </r>
       <r>    3.5175    1.0000 </r>
       <r>    3.5528    1.0000 </r>
       <r>    3.6038    1.0000 </r>
       <r>    4.2708    1.0000 </r>
       <r>    4.2756    1.0000 </r>
       <r>    4.2976    1.0000 </r>
       <r>    4.3082    1.0000 </r>
       <r>    5.1921    0.0000 </r>
       <r>    5.1948    0.0000 </r>
       <r>    5.2259    0.0000 </r>
       <r>    5.2275    0.0000 </r>
       <r>    5.7911    0.0000 </r>
       <r>    5.8002    0.0000 </r>
       <r>    5.8309    0.0000 </r>
       <r>    5.8355    0.0000 </r>
       <r>    6.1867    0.0000 </r>
       <r>    6.2014    0.0000 </r>
       <r>    6.2156    0.0000 </r>
       <r>    6.2243    0.0000 </r>
       <r>    6.2718    0.0000 </r>
       <r>    6.2826    0.0000 </r>
       <r>    6.3030    0.0000 </r>
       <r>    6.3171    0.0000 </r>
       <r>    6.8283    0.0000 </r>
       <r>    6.9920    0.0000 </r>
       <r>    6.9975    0.0000 </r>
       <r>    7.0959    0.0000 </r>
       <r>    7.2780    0.0000 </r>
       <r>    7.4108    0.0000 </r>
       <r>    7.5185    0.0000 </r>
       <r>    7.5629    0.0000 </r>
       <r>    7.7954    0.0000 </r>
       <r>    7.8628    0.0000 </r>
       <r>    7.9628    0.0000 </r>
       <r>    7.9905    0.0000 </r>
       <r>    8.0493    0.0000 </r>
       <r>    8.3261    0.0000 </r>
       <r>    8.3631    0.0000 </r>
       <r>    8.5016    0.0000 </r>
       <r>    8.7280    0.0000 </r>
       <r>    8.8936    0.0000 </r>
       <r>    8.9247    0.0000 </r>
       <r>    8.9698    0.0000 </r>
       <r>    9.0660    0.0000 </r>
       <r>    9.0701    0.0000 </r>
       <r>    9.0752    0.0000 </r>
       <r>    9.1466    0.0000 </r>
       <r>    9.1610    0.0000 </r>
       <r>    9.1717    0.0000 </r>
       <r>    9.1993    0.0000 </r>
       <r>    9.2224    0.0000 </r>
       <r>    9.5039    0.0000 </r>
       <r>    9.5134    0.0000 </r>
       <r>    9.7416    0.0000 </r>
       <r>    9.7467    0.0000 </r>
       <r>    9.7832    0.0000 </r>
       <r>    9.8323    0.0000 </r>
       <r>    9.8604    0.0000 </r>
       <r>   10.0892    0.0000 </r>
       <r>   10.1223    0.0000 </r>
       <r>   10.1692    0.0000 </r>
       <r>   10.1815    0.0000 </r>
       <r>   10.3818    0.0000 </r>
       <r>   10.6323    0.0000 </r>
       <r>   10.6392    0.0000 </r>
[...]
       <r>   11.3622    0.0000 </r>
       <r>   11.3748    0.0000 </r>
       <r>   11.4722    0.0000 </r>
       <r>   11.4783    0.0000 </r>
      </set>
     </set>
    </set>
   </array>
  </eigenvalues>
  <separator name="orbital magnetization" >
   <v name="MAGDIPOLOUT">      0.00000000      0.00000000      0.00000000</v>
  </separator>
  <dos>
   <i name="efermi">      4.31019807 </i>
   <total>
    <array>
     <dimension dim="1">gridpoints</dimension>
     <dimension dim="2">spin</dimension>
     <field>energy</field>
     <field>total</field>
     <field>integrated</field>
     <set>
      <set comment="spin 1">
       <r>   -42.8292     0.0000     0.0000 </r>
       <r>   -42.6364     0.0000     0.0000 </r>
       <r>   -42.4436     0.0000     0.0000 </r>
       <r>   -42.2508     0.0000     0.0000 </r>
       <r>   -42.0580     0.0000     0.0000 </r>
       <r>   -41.8652     0.0000     0.0000 </r>
       <r>   -41.6724     0.0000     0.0000 </r>
       <r>   -41.4796     0.0000     0.0000 </r>
       <r>   -41.2868     0.0000     0.0000 </r>
       <r>   -41.0940     0.0000     0.0000 </r>
       <r>   -40.9012     0.0000     0.0000 </r>
       <r>   -40.7084     0.0000     0.0000 </r>
       <r>   -40.5156     0.0000     0.0000 </r>
       <r>   -40.3228     0.0000     0.0000 </r>
       <r>   -40.1300     0.0000     2.0000 </r>
       <r>   -39.9372     0.0000    10.0000 </r>
       <r>   -39.7444     0.0000    16.0000 </r>
       <r>   -39.5516     0.0000    16.0000 </r>
       <r>   -39.3588     0.0000    24.0000 </r>
       <r>   -39.1660     0.0000    24.0000 </r>
       <r>   -38.9732     0.0000    24.0000 </r>
       <r>   -38.7804     0.0000    24.0000 </r>
       <r>   -38.5876     0.0000    24.0000 </r>
       <r>   -38.3948     0.0000    24.0000 </r>
       <r>   -38.2020     0.0000    24.0000 </r>
       <r>   -38.0092     0.0000    24.0000 </r>
       <r>   -37.8164     0.0000    24.0000 </r>
       <r>   -37.6236     0.0000    24.0000 </r>
       <r>   -37.4308     0.0000    24.0000 </r>
       <r>   -37.2380     0.0000    24.0000 </r>
       <r>   -37.0452     0.0000    24.0000 </r>
       <r>   -36.8524     0.0000    24.0000 </r>
       <r>   -36.6596     0.0000    24.0000 </r>
       <r>   -36.4668     0.0000    24.0000 </r>
       <r>   -36.2740     0.0000    24.0000 </r>
       <r>   -36.0812     0.0000    24.0000 </r>
       <r>   -35.8884     0.0000    24.0000 </r>
       <r>   -35.6956     0.0000    24.0000 </r>
       <r>   -35.5028     0.0000    24.0000 </r>
       <r>   -35.3100     0.0000    24.0000 </r>
       <r>   -35.1172     0.0000    24.0000 </r>
       <r>   -34.9244     0.0000    24.0000 </r>
       <r>   -34.7316     0.0000    24.0000 </r>
       <r>   -34.5388     0.0000    24.0000 </r>
       <r>   -34.3460     0.0000    24.0000 </r>
       <r>   -34.1532     0.0000    24.0000 </r>
       <r>   -33.9604     0.0000    24.0000 </r>
       <r>   -33.7676     0.0000    24.0000 </r>
       <r>   -33.5748     0.0000    24.0000 </r>
       <r>   -33.3820     0.0000    24.0000 </r>
       <r>   -33.1892     0.0000    24.0000 </r>
       <r>   -32.9964     0.0000    24.0000 </r>
       <r>   -32.8036     0.0000    24.0000 </r>
       <r>   -32.6108     0.0000    24.0000 </r>
       <r>   -32.4180     0.0000    24.0000 </r>
       <r>   -32.2252     0.0000    24.0000 </r>
       <r>   -32.0324     0.0000    24.0000 </r>
       <r>   -31.8396     0.0000    24.0000 </r>
       <r>   -31.6468     0.0000    24.0000 </r>
       <r>   -31.4540     0.0000    24.0000 </r>
       <r>   -31.2612     0.0000    24.0000 </r>
       <r>   -31.0684     0.0000    24.0000 </r>
       <r>   -30.8756     0.0000    24.0000 </r>
       <r>   -30.6828     0.0000    24.0000 </r>
       <r>   -30.4900     0.0000    24.0000 </r>
       <r>   -30.2972     0.0000    24.0000 </r>
       <r>   -30.1044     0.0000    24.0000 </r>
       <r>   -29.9116     0.0000    24.0000 </r>
       <r>   -29.7188     0.0000    24.0000 </r>
       <r>   -29.5260     0.0000    24.0000 </r>
       <r>   -29.3332     0.0000    24.0000 </r>
       <r>   -29.1404     0.0000    24.0000 </r>
       <r>   -28.9476     0.0000    24.0000 </r>
       <r>   -28.7548     0.0000    24.0000 </r>
       <r>   -28.5620     0.0000    24.0000 </r>
       <r>   -28.3692     0.0000    24.0000 </r>
       <r>   -28.1764     0.0000    24.0000 </r>
       <r>   -27.9836     0.0000    24.0000 </r>
       <r>   -27.7908     0.0000    24.0000 </r>
       <r>   -27.5980     0.0000    24.0000 </r>
       <r>   -27.4052     0.0000    24.0000 </r>
       <r>   -27.2125     0.0000    24.0000 </r>
       <r>   -27.0197     0.0000    24.0000 </r>
       <r>   -26.8269     0.0000    24.0000 </r>
       <r>   -26.6341     0.0000    24.0000 </r>
       <r>   -26.4413     0.0000    24.0000 </r>
       <r>   -26.2485     0.0000    24.0000 </r>
       <r>   -26.0557     0.0000    24.0000 </r>
       <r>   -25.8629     0.0000    24.0000 </r>
       <r>   -25.6701     0.0000    24.0000 </r>
       <r>   -25.4773     0.0000    24.0000 </r>
       <r>   -25.2845     0.0000    24.0000 </r>
       <r>   -25.0917     0.0000    24.0000 </r>
       <r>   -24.8989     0.0000    24.0000 </r>
       <r>   -24.7061     0.0000    24.0000 </r>
       <r>   -24.5133     0.0000    24.0000 </r>
       <r>   -24.3205     0.0000    24.0000 </r>
       <r>   -24.1277     0.0000    24.0000 </r>
       <r>   -23.9349     0.0000    24.0000 </r>
       <r>   -23.7421     0.0000    24.0000 </r>
       <r>   -23.5493     0.0000    24.0000 </r>
       <r>   -23.3565     0.0000    24.0000 </r>
       <r>   -23.1637     0.0000    24.0000 </r>
       <r>   -22.9709     0.0000    24.0000 </r>
       <r>   -22.7781     0.0000    24.0000 </r>
       <r>   -22.5853     0.0000    24.0000 </r>
       <r>   -22.3925     0.0000    24.0000 </r>
       <r>   -22.1997     0.0000    24.0000 </r>
       <r>   -22.0069     0.0000    24.0000 </r>
       <r>   -21.8141     0.0000    24.0000 </r>
       <r>   -21.6213     0.0000    24.0000 </r>
       <r>   -21.4285     0.0000    24.0000 </r>
       <r>   -21.2357     0.0000    24.0000 </r>
       <r>   -21.0429     0.0000    24.0000 </r>
       <r>   -20.8501     0.0000    24.0000 </r>
       <r>   -20.6573     0.0000    24.0000 </r>
       <r>   -20.4645     0.0000    24.0000 </r>
       <r>   -20.2717     0.0000    24.0000 </r>
       <r>   -20.0789     0.0000    24.0000 </r>
       <r>   -19.8861     0.0000    24.0000 </r>
       <r>   -19.6933     0.0000    24.0000 </r>
       <r>   -19.5005     0.0000    24.0000 </r>
       <r>   -19.3077     0.0000    24.0000 </r>
       <r>   -19.1149     0.0000    24.0000 </r>
       <r>   -18.9221     0.0000    24.0000 </r>
       <r>   -18.7293     0.0000    36.0000 </r>
       <r>   -18.5365     0.0000   108.0000 </r>
       <r>   -18.3437     0.0000   172.0000 </r>
       <r>   -18.1509     0.0000   180.0000 </r>
       <r>   -17.9581     0.0000   184.0000 </r>
       <r>   -17.7653     0.0000   184.0000 </r>
       <r>   -17.5725     0.0000   184.0000 </r>
       <r>   -17.3797     0.0000   184.0000 </r>
       <r>   -17.1869     0.0000   184.0000 </r>
       <r>   -16.9941     0.0000   184.0000 </r>
       <r>   -16.8013     0.0000   184.0000 </r>
       <r>   -16.6085     0.0000   184.0000 </r>
       <r>   -16.4157     0.0000   184.0000 </r>
       <r>   -16.2229     0.0000   184.0000 </r>
       <r>   -16.0301     0.0000   184.0000 </r>
       <r>   -15.8373     0.0000   184.0000 </r>
       <r>   -15.6445     0.0000   184.0000 </r>
       <r>   -15.4517     0.0000   184.0000 </r>
       <r>   -15.2589     0.0000   184.0000 </r>
       <r>   -15.0661     0.0000   184.0000 </r>
       <r>   -14.8733     0.0000   184.0000 </r>
       <r>   -14.6805     0.0000   184.0000 </r>
       <r>   -14.4877     0.0000   184.0000 </r>
       <r>   -14.2949     0.0000   184.0000 </r>
       <r>   -14.1021     0.0000   184.0000 </r>
       <r>   -13.9093     0.0000   184.0000 </r>
       <r>   -13.7165     0.0000   184.0000 </r>
       <r>   -13.5237     0.0000   186.0000 </r>
       <r>   -13.3309     0.0000   188.0000 </r>
       <r>   -13.1381     0.0000   188.0000 </r>
       <r>   -12.9453     0.0000   188.0000 </r>
       <r>   -12.7525    53.9524   192.4677 </r>
       <r>   -12.5597     0.0000   210.0000 </r>
       <r>   -12.3669     0.0000   212.0000 </r>
       <r>   -12.1741     0.0000   212.0000 </r>
       <r>   -11.9813     0.0000   212.0000 </r>
       <r>   -11.7885     0.0000   216.0000 </r>
       <r>   -11.5957     0.0000   216.0000 </r>
       <r>   -11.4029     0.0000   216.0000 </r>
       <r>   -11.2101     0.0000   216.0000 </r>
       <r>   -11.0173     0.0000   216.0000 </r>
       <r>   -10.8245     0.0000   216.0000 </r>
       <r>   -10.6317     0.0000   216.0000 </r>
       <r>   -10.4389     0.0000   216.0000 </r>
       <r>   -10.2461     0.0000   216.0000 </r>
       <r>   -10.0533     0.0000   216.0000 </r>
       <r>    -9.8605     0.0000   216.0000 </r>
       <r>    -9.6677     0.0000   216.0000 </r>
       <r>    -9.4749     0.0000   216.0000 </r>
       <r>    -9.2821     0.6496   216.0031 </r>
       <r>    -9.0893    10.5964   217.3990 </r>
       <r>    -8.8965     0.0000   220.0000 </r>
       <r>    -8.7037    14.3165   222.5033 </r>
       <r>    -8.5109    14.1569   224.9706 </r>
       <r>    -8.3181    23.2346   229.8379 </r>
       <r>    -8.1253    20.3605   233.2048 </r>
       <r>    -7.9325    22.6293   238.1165 </r>
       <r>    -7.7397    15.8363   241.7233 </r>
       <r>    -7.5469    22.9221   245.3001 </r>
       <r>    -7.3541     3.0775   247.9582 </r>
       <r>    -7.1613     0.0000   248.0000 </r>
       <r>    -6.9685     0.0000   248.0000 </r>
       <r>    -6.7757     0.0000   248.0000 </r>
       <r>    -6.5829     0.0000   248.0000 </r>
       <r>    -6.3902     0.0000   248.0000 </r>
       <r>    -6.1974    12.5998   248.8023 </r>
       <r>    -6.0046    29.5647   253.0213 </r>
       <r>    -5.8118    17.0232   256.8273 </r>
       <r>    -5.6190    20.6233   261.7222 </r>
       <r>    -5.4262    22.1612   265.8730 </r>
       <r>    -5.2334    16.9823   269.7361 </r>
       <r>    -5.0406     4.9257   271.8258 </r>
       <r>    -4.8478     7.2968   272.7634 </r>
       <r>    -4.6550     8.4928   274.2612 </r>
       <r>    -4.4622     9.1734   276.1315 </r>
       <r>    -4.2694     6.6062   277.4744 </r>
       <r>    -4.0766     6.1148   278.8169 </r>
       <r>    -3.8838     2.7410   279.6696 </r>
       <r>    -3.6910     0.7177   279.9582 </r>
       <r>    -3.4982     0.0000   280.0000 </r>
       <r>    -3.3054     0.0000   280.0000 </r>
       <r>    -3.1126     0.0000   280.0000 </r>
       <r>    -2.9198     0.0000   280.0000 </r>
       <r>    -2.7270     0.0000   280.0000 </r>
       <r>    -2.5342     0.0000   280.0000 </r>
       <r>    -2.3414     0.0000   280.0000 </r>
       <r>    -2.1486     0.0000   280.0000 </r>
       <r>    -1.9558     0.0000   280.0000 </r>
       <r>    -1.7630     0.0000   280.0000 </r>
       <r>    -1.5702     0.0000   280.0000 </r>
       <r>    -1.3774     0.0000   280.0000 </r>
       <r>    -1.1846     7.1740   280.4778 </r>
       <r>    -0.9918    10.6479   282.1799 </r>
       <r>    -0.7990    12.3825   284.6486 </r>
       <r>    -0.6062     7.5119   286.5350 </r>
       <r>    -0.4134    11.1984   287.8221 </r>
       <r>    -0.2206    23.0859   291.4570 </r>
       <r>    -0.0278    39.8248   297.0792 </r>
       <r>     0.1650    31.8424   304.6213 </r>
       <r>     0.3578    49.0667   310.7938 </r>
       <r>     0.5506    36.0076   318.5772 </r>
       <r>     0.7434    36.6550   325.8886 </r>
       <r>     0.9362    35.8870   332.1459 </r>
       <r>     1.1290    55.7980   340.4815 </r>
       <r>     1.3218    36.1629   349.4193 </r>
       <r>     1.5146    58.2093   358.2416 </r>
       <r>     1.7074    47.0632   368.0750 </r>
       <r>     1.9002    56.1523   379.5253 </r>
       <r>     2.0930    55.0029   387.2110 </r>
       <r>     2.2858    35.4132   395.5198 </r>
       <r>     2.4786    60.8076   404.4837 </r>
       <r>     2.6714    57.7820   417.0348 </r>
       <r>     2.8642    58.8355   429.6501 </r>
       <r>     3.0570    73.0546   442.5097 </r>
       <r>     3.2498    32.0402   452.6370 </r>
       <r>     3.4426    37.0186   459.0621 </r>
       <r>     3.6354    14.2492   465.9010 </r>
       <r>     3.8282    13.0151   469.1451 </r>
       <r>     4.0210     7.2848   471.1021 </r>
       <r>     4.2138     1.5454   471.9535 </r>
       <r>     4.4066     0.0000   472.0000 </r>
       <r>     4.5994     0.0000   472.0000 </r>
       <r>     4.7922     0.0000   472.0000 </r>
       <r>     4.9850     0.0000   472.0000 </r>
       <r>     5.1778     0.2564   472.0041 </r>
       <r>     5.3706     4.2518   472.4221 </r>
       <r>     5.5634     8.4576   473.6472 </r>
       <r>     5.7562     8.3515   475.4179 </r>
       <r>     5.9490    15.2615   479.6587 </r>
       <r>     6.1418    11.9503   482.2023 </r>
       <r>     6.3346    11.8678   484.4357 </r>
       <r>     6.5274    13.6300   486.8941 </r>
       <r>     6.7202    15.3691   489.6900 </r>
       <r>     6.9130    17.2017   492.8251 </r>
       <r>     7.1058    21.3934   496.4439 </r>
       <r>     7.2986    34.6425   501.7339 </r>
       <r>     7.4914    44.4133   509.9175 </r>
       <r>     7.6842    27.5044   515.2332 </r>
       <r>     7.8770    45.1682   523.0103 </r>
       <r>     8.0698    35.7086   531.7310 </r>
       <r>     8.2626    20.0581   536.6493 </r>
       <r>     8.4554    19.1535   540.2765 </r>
       <r>     8.6482    26.6674   544.5958 </r>
       <r>     8.8410    42.0450   550.1522 </r>
       <r>     9.0338    32.9410   558.5914 </r>
       <r>     9.2266    14.9840   562.9580 </r>
       <r>     9.4194    11.3065   565.5155 </r>
       <r>     9.6122    15.8640   568.0611 </r>
       <r>     9.8050     8.8608   570.5798 </r>
       <r>     9.9978     7.8640   572.2572 </r>
       <r>    10.1906    13.9234   574.1246 </r>
       <r>    10.3834    20.1324   577.8665 </r>
       <r>    10.5762    31.0258   583.0137 </r>
       <r>    10.7690    53.9954   590.3799 </r>
       <r>    10.9618    14.9522   596.6001 </r>
       <r>    11.1546    23.2058   600.8617 </r>
       <r>    11.3474    25.4912   605.1752 </r>
       <r>    11.5402    19.7272   609.6444 </r>
       <r>    11.7330    14.0451   612.8779 </r>
       <r>    11.9258     7.2786   614.9095 </r>
       <r>    12.1186     2.4028   615.8062 </r>
       <r>    12.3114     0.1301   615.9970 </r>
       <r>    12.5042     0.0000   616.0000 </r>
       <r>    12.6970     0.0000   616.0000 </r>
       <r>    12.8898     0.0000   616.0000 </r>
       <r>    13.0826     0.0000   616.0000 </r>
       <r>    13.2754     0.0000   616.0000 </r>
       <r>    13.4682     0.0000   616.0000 </r>
       <r>    13.6610     0.0000   616.0000 </r>
       <r>    13.8538     0.0000   616.0000 </r>
       <r>    14.0466     0.0000   616.0000 </r>
       <r>    14.2394     0.0000   616.0000 </r>
       <r>    14.4321     0.0000   616.0000 </r>
       <r>    14.6249     0.0000   616.0000 </r>
       <r>    14.8177     0.0000   616.0000 </r>
       <r>    15.0105     0.0000   616.0000 </r>
      </set>
     </set>
    </array>
   </total>
  </dos>
 </calculation>
 <structure name="finalpos" >
  <crystal>
   <varray name="basis" >
    <v>      11.17850000       0.00000000       0.00000000 </v>
    <v>       0.00000000       9.57460000       0.00000000 </v>
    <v>       0.00000000       0.00000000      11.18240000 </v>
   </varray>
   <i name="volume">   1196.84853820 </i>
   <varray name="rec_basis" >
    <v>       0.08945744       0.00000000       0.00000000 </v>
    <v>       0.00000000       0.10444301       0.00000000 </v>
    <v>       0.00000000       0.00000000       0.08942624 </v>
   </varray>
  </crystal>
  <varray name="positions" >
   <v>       0.37539000       0.00017000       0.43687000 </v>
   <v>       0.12461000       0.99984000       0.18687000 </v>
   <v>       0.62539000       0.99984000       0.43687000 </v>
   <v>       0.87539000       0.00017000       0.43687000 </v>
   <v>       0.62461000       0.99984000       0.18687000 </v>
   <v>       0.87461000       0.00017000       0.18687000 </v>
   <v>       0.37539000       0.00017000       0.93687000 </v>
   <v>       0.37461000       0.00017000       0.68687000 </v>
   <v>       0.62539000       0.99984000       0.93687000 </v>
   <v>       0.87539000       0.00017000       0.93687000 </v>
   <v>       0.62461000       0.99984000       0.68687000 </v>
   <v>       0.87461000       0.00017000       0.68687000 </v>
   <v>       0.37461000       0.00017000       0.18687000 </v>
   <v>       0.12461000       0.99984000       0.68687000 </v>
   <v>       0.00013000       0.29519000       0.06281000 </v>
   <v>       0.25013000       0.70481000       0.06281000 </v>
   <v>       0.24987000       0.29519000       0.31282000 </v>
   <v>       0.49987000       0.70481000       0.31282000 </v>
   <v>       0.50013000       0.29519000       0.06281000 </v>
   <v>       0.75013000       0.70481000       0.06281000 </v>
   <v>       0.74987000       0.29519000       0.31282000 </v>
   <v>       0.99987000       0.70481000       0.31282000 </v>
   <v>       0.00013000       0.29519000       0.56281000 </v>
   <v>       0.25013000       0.70481000       0.56281000 </v>
   <v>       0.24987000       0.29519000       0.81282000 </v>
   <v>       0.49987000       0.70481000       0.81282000 </v>
   <v>       0.50013000       0.29519000       0.56281000 </v>
   <v>       0.75013000       0.70481000       0.56281000 </v>
   <v>       0.74987000       0.29519000       0.81282000 </v>
   <v>       0.99987000       0.70481000       0.81282000 </v>
   <v>       0.25005000       0.32677000       0.06286000 </v>
   <v>       0.00005000       0.67323000       0.06286000 </v>
   <v>       0.49995000       0.32677000       0.31286000 </v>
   <v>       0.24995000       0.67323000       0.31286000 </v>
   <v>       0.75005000       0.32677000       0.06286000 </v>
   <v>       0.50005000       0.67323000       0.06286000 </v>
   <v>       0.99995000       0.32677000       0.31286000 </v>
   <v>       0.74995000       0.67323000       0.31286000 </v>
   <v>       0.25005000       0.32677000       0.56286000 </v>
   <v>       0.00005000       0.67323000       0.56286000 </v>
   <v>       0.49995000       0.32677000       0.81286000 </v>
   <v>       0.24995000       0.67323000       0.81286000 </v>
   <v>       0.75005000       0.32677000       0.56286000 </v>
   <v>       0.50005000       0.67323000       0.56286000 </v>
   <v>       0.99995000       0.32677000       0.81286000 </v>
   <v>       0.74995000       0.67323000       0.81286000 </v>
   <v>       0.49987000       0.07798000       0.06246000 </v>
   <v>       0.24987000       0.92202000       0.06246000 </v>
   <v>       0.25013000       0.07798000       0.31246000 </v>
   <v>       0.00013000       0.92202000       0.31246000 </v>
   <v>       0.99987000       0.07798000       0.06246000 </v>
   <v>       0.74987000       0.92202000       0.06246000 </v>
   <v>       0.75013000       0.07798000       0.31246000 </v>
   <v>       0.50013000       0.92202000       0.31246000 </v>
   <v>       0.49987000       0.07798000       0.56246000 </v>
   <v>       0.24987000       0.92202000       0.56246000 </v>
   <v>       0.25013000       0.07798000       0.81246000 </v>
   <v>       0.00013000       0.92202000       0.81246000 </v>
   <v>       0.99987000       0.07798000       0.56246000 </v>
   <v>       0.74987000       0.92202000       0.56246000 </v>
   <v>       0.75013000       0.07798000       0.81246000 </v>
   <v>       0.50013000       0.92202000       0.81246000 </v>
  </varray>
 </structure>
</modeling>
