<?xml version="1.0" encoding="ISO-8859-1"?>
<modeling>
 <generator>
  <i name="program" type="string">vasp </i>
  <i name="version" type="string">5.4.4.18Apr17-6-g9f103f2a35  </i>
  <i name="subversion" type="string">(build Jul 31 2017 11:33:29) complex            parallel </i>
  <i name="platform" type="string">LinuxIFC </i>
  <i name="date" type="string">2021 09 29 </i>
  <i name="time" type="string">18:34:52 </i>
 </generator>
 <incar>
  <i type="string" name="SYSTEM"> La2O2S</i>
  <i type="string" name="PREC">normal</i>
  <i type="int" name="NELMIN">     4</i>
  <i type="int" name="IBRION">     2</i>
  <i type="int" name="NFREE">    10</i>
  <i name="EDIFF">      0.00000100</i>
  <i name="EDIFFG">     -0.01000000</i>
  <i type="int" name="NSW">     1</i>
  <i type="int" name="ISIF">     2</i>
  <i name="ENCUT">    600.00000000</i>
  <i name="ENAUG">    900.00000000</i>
  <i type="int" name="ISMEAR">    -5</i>
  <i type="logical" name="LWAVE"> F  </i>
  <i type="logical" name="LCHARG"> F  </i>
  <v type="int" name="KPOINT_BSE">    -1     0     0     0</v>
 </incar>
 <structure name="primitive_cell" >
  <crystal>
   <varray name="basis" >
    <v>      11.17850000       0.00000000       0.00000000 </v>
    <v>       0.00000000       9.57460000       0.00000000 </v>
    <v>       0.00000000       0.00000000      11.18240000 </v>
   </varray>
   <i name="volume">   1196.84853820 </i>
   <varray name="rec_basis" >
    <v>       0.08945744       0.00000000       0.00000000 </v>
    <v>       0.00000000       0.10444301       0.00000000 </v>
    <v>       0.00000000       0.00000000       0.08942624 </v>
   </varray>
  </crystal>
  <varray name="positions" >
   <v>       0.37539000       0.00017000       0.43687000 </v>
   <v>      -0.49987000      -0.07798000       0.31246000 </v>
   <v>       0.25013000       0.07798000       0.31246000 </v>
   <v>       0.49987000       0.07798000      -0.43754000 </v>
   <v>       0.24987000      -0.07798000      -0.43754000 </v>
   <v>       0.37461000       0.00017000      -0.31313000 </v>
   <v>       0.49987000      -0.29519000       0.31282000 </v>
   <v>       0.24987000       0.29519000       0.31282000 </v>
   <v>      -0.49987000       0.29519000      -0.43719000 </v>
   <v>       0.25013000      -0.29519000      -0.43719000 </v>
   <v>       0.49995000       0.32677000       0.31286000 </v>
   <v>       0.24995000      -0.32677000       0.31286000 </v>
   <v>      -0.49995000      -0.32677000      -0.43714000 </v>
   <v>       0.25005000       0.32677000      -0.43714000 </v>
   <v>      -0.37539000      -0.00016000      -0.31313000 </v>
   <v>      -0.37539000      -0.00016000       0.18687000 </v>
   <v>       0.12461000      -0.00016000      -0.31313000 </v>
   <v>       0.12461000      -0.00016000       0.18687000 </v>
   <v>       0.49987000       0.07798000       0.06246000 </v>
   <v>      -0.24987000       0.07798000       0.31246000 </v>
   <v>      -0.25013000      -0.07798000      -0.43754000 </v>
   <v>       0.24987000      -0.07798000       0.06246000 </v>
   <v>       0.00013000      -0.07798000       0.31246000 </v>
   <v>      -0.49987000      -0.07798000      -0.18754000 </v>
   <v>      -0.00013000       0.07798000      -0.43754000 </v>
   <v>       0.25013000       0.07798000      -0.18754000 </v>
   <v>      -0.49987000       0.29519000       0.06281000 </v>
   <v>      -0.25013000       0.29519000       0.31282000 </v>
   <v>       0.25013000      -0.29519000       0.06281000 </v>
   <v>      -0.24987000      -0.29519000      -0.43719000 </v>
   <v>      -0.00013000      -0.29519000       0.31282000 </v>
   <v>       0.00013000       0.29519000      -0.43719000 </v>
   <v>       0.49987000      -0.29519000      -0.18718000 </v>
   <v>       0.24987000       0.29519000      -0.18718000 </v>
   <v>      -0.49995000      -0.32677000       0.06286000 </v>
   <v>       0.25005000       0.32677000       0.06286000 </v>
   <v>      -0.25005000      -0.32677000       0.31286000 </v>
   <v>      -0.24995000       0.32677000      -0.43714000 </v>
   <v>      -0.00005000       0.32677000       0.31286000 </v>
   <v>       0.00005000      -0.32677000      -0.43714000 </v>
   <v>       0.49995000       0.32677000      -0.18714000 </v>
   <v>       0.24995000      -0.32677000      -0.18714000 </v>
   <v>      -0.12461000       0.00017000       0.43687000 </v>
   <v>       0.37539000       0.00017000      -0.06313000 </v>
   <v>      -0.25013000      -0.07798000       0.06246000 </v>
   <v>      -0.00013000       0.07798000       0.06246000 </v>
   <v>      -0.24987000       0.07798000      -0.18754000 </v>
   <v>       0.00013000      -0.07798000      -0.18754000 </v>
   <v>      -0.12539000       0.00017000      -0.31313000 </v>
   <v>       0.12539000      -0.00016000      -0.06313000 </v>
   <v>      -0.37461000      -0.00016000      -0.06313000 </v>
   <v>      -0.24987000      -0.29519000       0.06281000 </v>
   <v>       0.00013000       0.29519000       0.06281000 </v>
   <v>      -0.25013000       0.29519000      -0.18718000 </v>
   <v>      -0.00013000      -0.29519000      -0.18718000 </v>
   <v>      -0.24995000       0.32677000       0.06286000 </v>
   <v>       0.00005000      -0.32677000       0.06286000 </v>
   <v>      -0.25005000      -0.32677000      -0.18714000 </v>
   <v>      -0.00005000       0.32677000      -0.18714000 </v>
   <v>      -0.12461000       0.00017000      -0.06313000 </v>
  </varray>
 </structure>
 <varray name="primitive_index" >
  <v type="int" >        1 </v>
  <v type="int" >       52 </v>
  <v type="int" >       47 </v>
  <v type="int" >       53 </v>
  <v type="int" >       54 </v>
  <v type="int" >       12 </v>
  <v type="int" >       16 </v>
  <v type="int" >       15 </v>
  <v type="int" >       25 </v>
  <v type="int" >       22 </v>
  <v type="int" >       31 </v>
  <v type="int" >       32 </v>
  <v type="int" >       42 </v>
  <v type="int" >       37 </v>
  <v type="int" >        7 </v>
  <v type="int" >       11 </v>
  <v type="int" >        4 </v>
  <v type="int" >        9 </v>
  <v type="int" >       45 </v>
  <v type="int" >       51 </v>
  <v type="int" >       58 </v>
  <v type="int" >       46 </v>
  <v type="int" >       48 </v>
  <v type="int" >       60 </v>
  <v type="int" >       57 </v>
  <v type="int" >       55 </v>
  <v type="int" >       17 </v>
  <v type="int" >       19 </v>
  <v type="int" >       14 </v>
  <v type="int" >       26 </v>
  <v type="int" >       20 </v>
  <v type="int" >       21 </v>
  <v type="int" >       24 </v>
  <v type="int" >       23 </v>
  <v type="int" >       34 </v>
  <v type="int" >       29 </v>
  <v type="int" >       36 </v>
  <v type="int" >       41 </v>
  <v type="int" >       35 </v>
  <v type="int" >       38 </v>
  <v type="int" >       39 </v>
  <v type="int" >       40 </v>
  <v type="int" >       10 </v>
  <v type="int" >        3 </v>
  <v type="int" >       50 </v>
  <v type="int" >       49 </v>
  <v type="int" >       59 </v>
  <v type="int" >       56 </v>
  <v type="int" >        8 </v>
  <v type="int" >        2 </v>
  <v type="int" >        5 </v>
  <v type="int" >       18 </v>
  <v type="int" >       13 </v>
  <v type="int" >       27 </v>
  <v type="int" >       28 </v>
  <v type="int" >       33 </v>
  <v type="int" >       30 </v>
  <v type="int" >       44 </v>
  <v type="int" >       43 </v>
  <v type="int" >        6 </v>
 </varray>
 <kpoints>
  <generation param="Gamma">
   <v type="int" name="divisions">       2        2        2 </v>
   <v name="usershift">      0.00000000       0.00000000       0.00000000 </v>
   <v name="genvec1">      0.50000000       0.00000000       0.00000000 </v>
   <v name="genvec2">      0.00000000       0.50000000       0.00000000 </v>
   <v name="genvec3">      0.00000000       0.00000000       0.50000000 </v>
   <v name="shift">      0.00000000       0.00000000       0.00000000 </v>
  </generation>
  <varray name="kpointlist" >
   <v>       0.00000000       0.00000000       0.00000000 </v>
   <v>       0.50000000       0.00000000       0.00000000 </v>
   <v>       0.00000000       0.50000000       0.00000000 </v>
   <v>       0.50000000       0.50000000       0.00000000 </v>
   <v>       0.00000000       0.00000000       0.50000000 </v>
   <v>       0.50000000       0.00000000       0.50000000 </v>
   <v>       0.00000000       0.50000000       0.50000000 </v>
   <v>       0.50000000       0.50000000       0.50000000 </v>
  </varray>
  <varray name="weights" >
   <v>       0.12500000 </v>
   <v>       0.12500000 </v>
   <v>       0.12500000 </v>
   <v>       0.12500000 </v>
   <v>       0.12500000 </v>
   <v>       0.12500000 </v>
   <v>       0.12500000 </v>
   <v>       0.12500000 </v>
  </varray>
  <varray name="tetrahedronlist"  type="int" >
   <v type="int" >        2        1        2        4        5 </v>
   <v type="int" >        2        1        3        4        5 </v>
   <v type="int" >        2        3        4        5        7 </v>
   <v type="int" >        2        2        4        5        6 </v>
   <v type="int" >        2        4        5        6        8 </v>
   <v type="int" >        2        4        5        7        8 </v>
   <v type="int" >        2        1        2        3        6 </v>
   <v type="int" >        2        2        3        4        6 </v>
   <v type="int" >        2        3        4        6        8 </v>
   <v type="int" >        2        1        3        5        6 </v>
   <v type="int" >        2        3        5        6        7 </v>
   <v type="int" >        2        3        6        7        8 </v>
   <v type="int" >        2        2        3        4        7 </v>
   <v type="int" >        2        1        2        3        7 </v>
   <v type="int" >        2        1        2        5        7 </v>
   <v type="int" >        2        2        4        7        8 </v>
   <v type="int" >        2        2        6        7        8 </v>
   <v type="int" >        2        2        5        6        7 </v>
   <v type="int" >        2        1        3        4        8 </v>
   <v type="int" >        2        1        2        4        8 </v>
   <v type="int" >        2        1        2        6        8 </v>
   <v type="int" >        2        1        3        7        8 </v>
   <v type="int" >        2        1        5        7        8 </v>
   <v type="int" >        2        1        5        6        8 </v>
  </varray>
  <i name="volumeweight">      0.02083333 </i>
 </kpoints>
 <parameters>
  <separator name="general" >
   <i type="string" name="SYSTEM">La2O2S</i>
   <i type="logical" name="LCOMPAT"> F  </i>
  </separator>
  <separator name="electronic" >
   <i type="string" name="PREC">normal</i>
   <i name="ENMAX">    600.00000000</i>
   <i name="ENAUG">    900.00000000</i>
   <i name="EDIFF">      0.00000100</i>
   <i type="int" name="IALGO">    38</i>
   <i type="int" name="IWAVPR">    11</i>
   <i type="int" name="NBANDS">   280</i>
   <i name="NELECT">    464.00000000</i>
   <i type="int" name="TURBO">     0</i>
   <i type="int" name="IRESTART">     0</i>
   <i type="int" name="NREBOOT">     0</i>
   <i type="int" name="NMIN">     0</i>
   <i name="EREF">      0.00000000</i>
   <separator name="electronic smearing" >
    <i type="int" name="ISMEAR">    -5</i>
    <i name="SIGMA">      0.20000000</i>
    <i name="KSPACING">      0.50000000</i>
    <i type="logical" name="KGAMMA"> T  </i>
   </separator>
   <separator name="electronic projectors" >
    <i type="logical" name="LREAL"> F  </i>
    <v name="ROPT">      0.00000000      0.00000000      0.00000000      0.00000000      0.00000000</v>
    <i type="int" name="LMAXPAW">  -100</i>
    <i type="int" name="LMAXMIX">     2</i>
    <i type="logical" name="NLSPLINE"> F  </i>
   </separator>
   <separator name="electronic startup" >
    <i type="int" name="ISTART">     0</i>
    <i type="int" name="ICHARG">     2</i>
    <i type="int" name="INIWAV">     1</i>
   </separator>
   <separator name="electronic spin" >
    <i type="int" name="ISPIN">     1</i>
    <i type="logical" name="LNONCOLLINEAR"> F  </i>
    <v name="MAGMOM">      1.00000000      1.00000000      1.00000000      1.00000000      1.00000000      1.00000000      1.00000000      1.00000000      1.00000000      1.00000000      1.00000000      1.00000000      1.00000000      1.00000000      1.00000000      1.00000000      1.00000000      1.00000000      1.00000000      1.00000000
      1.00000000      1.00000000      1.00000000      1.00000000      1.00000000      1.00000000      1.00000000      1.00000000      1.00000000      1.00000000      1.00000000      1.00000000      1.00000000      1.00000000      1.00000000      1.00000000      1.00000000      1.00000000      1.00000000      1.00000000
      1.00000000      1.00000000      1.00000000      1.00000000      1.00000000      1.00000000      1.00000000      1.00000000      1.00000000      1.00000000      1.00000000      1.00000000      1.00000000      1.00000000      1.00000000      1.00000000      1.00000000      1.00000000      1.00000000      1.00000000
</v>
    <i name="NUPDOWN">     -1.00000000</i>
    <i type="logical" name="LSORBIT"> F  </i>
    <v name="SAXIS">      0.00000000      0.00000000      1.00000000</v>
    <i type="logical" name="LSPIRAL"> F  </i>
    <v name="QSPIRAL">      0.00000000      0.00000000      0.00000000</v>
    <i type="logical" name="LZEROZ"> F  </i>
   </separator>
   <separator name="electronic exchange-correlation" >
    <i type="logical" name="LASPH"> F  </i>
    <i type="logical" name="LMETAGGA"> F  </i>
   </separator>
   <separator name="electronic convergence" >
    <i type="int" name="NELM">    60</i>
    <i type="int" name="NELMDL">    -5</i>
    <i type="int" name="NELMIN">     4</i>
    <i name="ENINI">    600.00000000</i>
    <separator name="electronic convergence detail" >
     <i type="logical" name="LDIAG"> T  </i>
     <i type="logical" name="LSUBROT"> F  </i>
     <i name="WEIMIN">      0.00100000</i>
     <i name="EBREAK">      0.00000000</i>
     <i name="DEPER">      0.30000000</i>
     <i type="int" name="NRMM">     4</i>
     <i name="TIME">      0.40000000</i>
    </separator>
   </separator>
   <separator name="electronic mixer" >
    <i name="AMIX">      0.40000000</i>
    <i name="BMIX">      1.00000000</i>
    <i name="AMIN">      0.10000000</i>
    <i name="AMIX_MAG">      1.60000000</i>
    <i name="BMIX_MAG">      1.00000000</i>
    <separator name="electronic mixer details" >
     <i type="int" name="IMIX">     4</i>
     <i type="logical" name="MIXFIRST"> F  </i>
     <i type="int" name="MAXMIX">   -45</i>
     <i name="WC">    100.00000000</i>
     <i type="int" name="INIMIX">     1</i>
     <i type="int" name="MIXPRE">     1</i>
     <i type="int" name="MREMOVE">     5</i>
    </separator>
   </separator>
   <separator name="electronic dipolcorrection" >
    <i type="logical" name="LDIPOL"> F  </i>
    <i type="logical" name="LMONO"> F  </i>
    <i type="int" name="IDIPOL">     0</i>
    <i name="EPSILON">      1.00000000</i>
    <v name="DIPOL">   -100.00000000   -100.00000000   -100.00000000</v>
    <i name="EFIELD">      0.00000000</i>
   </separator>
  </separator>
  <separator name="grids" >
   <i type="int" name="NGX">    70</i>
   <i type="int" name="NGY">    60</i>
   <i type="int" name="NGZ">    70</i>
   <i type="int" name="NGXF">   140</i>
   <i type="int" name="NGYF">   120</i>
   <i type="int" name="NGZF">   140</i>
   <i type="logical" name="ADDGRID"> F  </i>
  </separator>
  <separator name="ionic" >
   <i type="int" name="NSW">     1</i>
   <i type="int" name="IBRION">     2</i>
   <i type="int" name="MDALGO">     0</i>
   <i type="int" name="ISIF">     2</i>
   <i name="PSTRESS">      0.00000000</i>
   <i name="EDIFFG">     -0.01000000</i>
   <i type="int" name="NFREE">    10</i>
   <i name="POTIM">      0.50000000</i>
   <i name="SMASS">     -3.00000000</i>
   <i name="SCALEE">      1.00000000</i>
  </separator>
  <separator name="ionic md" >
   <i name="TEBEG">      0.00010000</i>
   <i name="TEEND">      0.00010000</i>
   <i type="int" name="NBLOCK">     1</i>
   <i type="int" name="KBLOCK">     1</i>
   <i type="int" name="NPACO">   256</i>
   <i name="APACO">     16.00000000</i>
  </separator>
  <separator name="symmetry" >
   <i type="int" name="ISYM">     2</i>
   <i name="SYMPREC">      0.00001000</i>
  </separator>
  <separator name="dos" >
   <i type="int" name="LORBIT">     0</i>
   <v name="RWIGS">     -1.00000000     -1.00000000     -1.00000000     -1.00000000     -1.00000000</v>
   <i type="int" name="NEDOS">   301</i>
   <i name="EMIN">     10.00000000</i>
   <i name="EMAX">    -10.00000000</i>
   <i name="EFERMI">      0.00000000</i>
  </separator>
  <separator name="writing" >
   <i type="int" name="NWRITE">     2</i>
   <i type="logical" name="LWAVE"> F  </i>
   <i type="logical" name="LDOWNSAMPLE"> F  </i>
   <i type="logical" name="LCHARG"> F  </i>
   <i type="logical" name="LPARD"> F  </i>
   <i type="logical" name="LVTOT"> F  </i>
   <i type="logical" name="LVHAR"> F  </i>
   <i type="logical" name="LELF"> F  </i>
   <i type="logical" name="LOPTICS"> F  </i>
   <v name="STM">      0.00000000      0.00000000      0.00000000      0.00000000      0.00000000      0.00000000      0.00000000</v>
  </separator>
  <separator name="performance" >
   <i type="int" name="NPAR">    28</i>
   <i type="int" name="NSIM">     4</i>
   <i type="int" name="NBLK">    -1</i>
   <i type="logical" name="LPLANE"> T  </i>
   <i type="logical" name="LSCALAPACK"> T  </i>
   <i type="logical" name="LSCAAWARE"> F  </i>
   <i type="logical" name="LSCALU"> F  </i>
   <i type="logical" name="LASYNC"> F  </i>
   <i type="logical" name="LORBITALREAL"> F  </i>
  </separator>
  <separator name="miscellaneous" >
   <i type="int" name="IDIOT">     3</i>
   <i type="int" name="ISPECIAL">     0</i>
   <i type="logical" name="LMUSIC"> F  </i>
   <v name="POMASS">      7.01000000     24.30500000    208.98000000     32.06600000     16.00000000</v>
   <v name="DARWINR">      0.00000000      0.00000000      0.00000000      0.00000000      0.00000000</v>
   <v name="DARWINV">      1.00000000      1.00000000      1.00000000      1.00000000      1.00000000</v>
   <i type="logical" name="LCORR"> T  </i>
  </separator>
  <i type="logical" name="GGA_COMPAT"> T  </i>
  <i type="logical" name="LBERRY"> F  </i>
  <i type="int" name="ICORELEVEL">     0</i>
  <i type="logical" name="LDAU"> F  </i>
  <i type="int" name="I_CONSTRAINED_M">     0</i>
  <separator name="electronic exchange-correlation" >
   <i type="string" name="GGA">--</i>
   <i type="int" name="VOSKOWN">     0</i>
   <i type="logical" name="LHFCALC"> F  </i>
   <i type="string" name="PRECFOCK"></i>
   <i type="logical" name="LSYMGRAD"> F  </i>
   <i type="logical" name="LHFONE"> F  </i>
   <i type="logical" name="LRHFCALC"> F  </i>
   <i type="logical" name="LTHOMAS"> F  </i>
   <i type="logical" name="LMODELHF"> F  </i>
   <i name="ENCUT4O">     -1.00000000</i>
   <i type="int" name="EXXOEP">     0</i>
   <i type="int" name="FOURORBIT">     0</i>
   <i name="AEXX">      0.00000000</i>
   <i name="HFALPHA">      0.00000000</i>
   <i name="MCALPHA">      0.00000000</i>
   <i name="ALDAX">      1.00000000</i>
   <i name="AGGAX">      1.00000000</i>
   <i name="ALDAC">      1.00000000</i>
   <i name="AGGAC">      1.00000000</i>
   <i type="int" name="NKREDX">     1</i>
   <i type="int" name="NKREDY">     1</i>
   <i type="int" name="NKREDZ">     1</i>
   <i type="logical" name="SHIFTRED"> F  </i>
   <i type="logical" name="ODDONLY"> F  </i>
   <i type="logical" name="EVENONLY"> F  </i>
   <i type="int" name="LMAXFOCK">     0</i>
   <i type="int" name="NMAXFOCKAE">     0</i>
   <i type="logical" name="LFOCKAEDFT"> F  </i>
   <i name="HFSCREEN">      0.00000000</i>
   <i name="HFSCREENC">      0.00000000</i>
   <i type="int" name="NBANDSGWLOW">     0</i>
  </separator>
  <separator name="vdW DFT" >
   <i type="logical" name="LUSE_VDW"> F  </i>
   <i name="Zab_VDW">     -0.84910000</i>
   <i name="PARAM1">      0.12340000</i>
   <i name="PARAM2">      1.00000000</i>
   <i name="PARAM3">      0.00000000</i>
  </separator>
  <separator name="model GW" >
   <i type="int" name="MODEL_GW">     0</i>
   <i name="MODEL_EPS0">     11.96848538</i>
   <i name="MODEL_ALPHA">      1.00000000</i>
  </separator>
  <separator name="linear response parameters" >
   <i type="logical" name="LEPSILON"> F  </i>
   <i type="logical" name="LRPA"> F  </i>
   <i type="logical" name="LNABLA"> F  </i>
   <i type="logical" name="LVEL"> F  </i>
   <i type="int" name="KINTER">     0</i>
   <i name="CSHIFT">      0.10000000</i>
   <i name="OMEGAMAX">     -1.00000000</i>
   <i name="DEG_THRESHOLD">      0.00200000</i>
   <i name="RTIME">     -0.10000000</i>
   <i name="WPLASMAI">      0.00000000</i>
   <v name="DFIELD">      0.00000000      0.00000000      0.00000000</v>
   <v name="WPLASMA">      0.00000000      0.00000000      0.00000000      0.00000000      0.00000000      0.00000000      0.00000000      0.00000000      0.00000000</v>
  </separator>
  <separator name="orbital magnetization" >
   <i type="logical" name="NUCIND"> F  </i>
   <v name="MAGPOS">      0.00000000      0.00000000      0.00000000</v>
   <i type="logical" name="LNICSALL"> T  </i>
   <i type="logical" name="ORBITALMAG"> F  </i>
   <i type="logical" name="LMAGBLOCH"> F  </i>
   <i type="logical" name="LCHIMAG"> F  </i>
   <i type="logical" name="LGAUGE"> T  </i>
   <i type="int" name="MAGATOM">     0</i>
   <v name="MAGDIPOL">      0.00000000      0.00000000      0.00000000</v>
   <v name="AVECCONST">      0.00000000      0.00000000      0.00000000</v>
  </separator>
  <separator name="response functions" >
   <i type="logical" name="LADDER"> F  </i>
   <i type="logical" name="LRPAFORCE"> F  </i>
   <i type="logical" name="LFXC"> F  </i>
   <i type="logical" name="LHARTREE"> T  </i>
   <i type="int" name="IBSE">     0</i>
   <v type="int" name="KPOINT">    -1     0     0     0</v>
   <i type="logical" name="LTCTE"> F  </i>
   <i type="logical" name="LTETE"> F  </i>
   <i type="logical" name="LTRIPLET"> F  </i>
   <i type="logical" name="LFXCEPS"> F  </i>
   <i type="logical" name="LFXHEG"> F  </i>
   <i type="int" name="NATURALO">     2</i>
   <i type="logical" name="L2ORDER"> F  </i>
   <i type="logical" name="LMP2LT"> F  </i>
   <i type="logical" name="LUSEW"> F  </i>
   <i name="ENCUTGW">     -2.00000000</i>
   <i name="ENCUTGWSOFT">     -2.00000000</i>
   <i name="ENCUTLF">     -1.00000000</i>
   <i type="int" name="LMAXMP2">    -1</i>
   <i name="SCISSOR">      0.00000000</i>
   <i type="int" name="NOMEGA">     0</i>
   <i type="int" name="NOMEGAR">     0</i>
   <i type="int" name="NBANDSGW">    -1</i>
   <i type="int" name="NBANDSO">    -1</i>
   <i type="int" name="NBANDSV">    -1</i>
   <i type="int" name="NELM">     1</i>
   <i type="int" name="NELMHF">     1</i>
   <i type="int" name="DIM">     3</i>
   <i type="int" name="ANTIRES">     0</i>
   <i name="OMEGAMAX">    -30.00000000</i>
   <i name="OMEGAMIN">    -30.00000000</i>
   <i name="OMEGATL">   -200.00000000</i>
   <i type="int" name="OMEGAGRID">   140</i>
   <i name="CSHIFT">     -0.10000000</i>
   <i type="logical" name="SELFENERGY"> F  </i>
   <i type="logical" name="LSPECTRAL"> F  </i>
   <i type="logical" name="LSPECTRALGW"> F  </i>
   <i type="logical" name="LSINGLES"> F  </i>
   <i type="logical" name="LFERMIGW"> F  </i>
   <i type="logical" name="ODDONLYGW"> F  </i>
   <i type="logical" name="EVENONLYGW"> F  </i>
   <i type="int" name="NKREDLFX">     1</i>
   <i type="int" name="NKREDLFY">     1</i>
   <i type="int" name="NKREDLFZ">     1</i>
   <i type="int" name="MAXMEM">  2800</i>
   <i type="int" name="TELESCOPE">     0</i>
   <i type="int" name="TAUPAR">     1</i>
   <i type="int" name="OMEGAPAR">    -1</i>
   <i name="LAMBDA">      1.00000000</i>
  </separator>
  <separator name="External order field" >
   <i name="OFIELD_KAPPA">      0.00000000</i>
   <v name="OFIELD_K">      0.00000000      0.00000000      0.00000000</v>
   <i name="OFIELD_Q6_NEAR">      0.00000000</i>
   <i name="OFIELD_Q6_FAR">      0.00000000</i>
   <i name="OFIELD_A">      0.00000000</i>
  </separator>
 </parameters>
 <atominfo>
  <atoms>      60 </atoms>
  <types>       5 </types>
  <array name="atoms" >
   <dimension dim="1">ion</dimension>
   <field type="string">element</field>
   <field type="int">atomtype</field>
   <set>
    <rc><c>Li</c><c>   1</c></rc>
    <rc><c>Li</c><c>   1</c></rc>
    <rc><c>Li</c><c>   1</c></rc>
    <rc><c>Li</c><c>   1</c></rc>
    <rc><c>Li</c><c>   1</c></rc>
    <rc><c>Li</c><c>   1</c></rc>
    <rc><c>Li</c><c>   1</c></rc>
    <rc><c>Li</c><c>   1</c></rc>
    <rc><c>Mg</c><c>   2</c></rc>
    <rc><c>Mg</c><c>   2</c></rc>
    <rc><c>Mg</c><c>   2</c></rc>
    <rc><c>Mg</c><c>   2</c></rc>
    <rc><c>Bi</c><c>   3</c></rc>
    <rc><c>Bi</c><c>   3</c></rc>
    <rc><c>Bi</c><c>   3</c></rc>
    <rc><c>Bi</c><c>   3</c></rc>
    <rc><c>Bi</c><c>   3</c></rc>
    <rc><c>Bi</c><c>   3</c></rc>
    <rc><c>Bi</c><c>   3</c></rc>
    <rc><c>Bi</c><c>   3</c></rc>
    <rc><c>Bi</c><c>   3</c></rc>
    <rc><c>Bi</c><c>   3</c></rc>
    <rc><c>Bi</c><c>   3</c></rc>
    <rc><c>Bi</c><c>   3</c></rc>
    <rc><c>Bi</c><c>   3</c></rc>
    <rc><c>Bi</c><c>   3</c></rc>
    <rc><c>Bi</c><c>   3</c></rc>
    <rc><c>Bi</c><c>   3</c></rc>
    <rc><c>S </c><c>   4</c></rc>
    <rc><c>S </c><c>   4</c></rc>
    <rc><c>S </c><c>   4</c></rc>
    <rc><c>S </c><c>   4</c></rc>
    <rc><c>S </c><c>   4</c></rc>
    <rc><c>S </c><c>   4</c></rc>
    <rc><c>S </c><c>   4</c></rc>
    <rc><c>S </c><c>   4</c></rc>
    <rc><c>S </c><c>   4</c></rc>
    <rc><c>S </c><c>   4</c></rc>
    <rc><c>S </c><c>   4</c></rc>
    <rc><c>S </c><c>   4</c></rc>
    <rc><c>S </c><c>   4</c></rc>
    <rc><c>S </c><c>   4</c></rc>
    <rc><c>S </c><c>   4</c></rc>
    <rc><c>S </c><c>   4</c></rc>
    <rc><c>O </c><c>   5</c></rc>
    <rc><c>O </c><c>   5</c></rc>
    <rc><c>O </c><c>   5</c></rc>
    <rc><c>O </c><c>   5</c></rc>
    <rc><c>O </c><c>   5</c></rc>
    <rc><c>O </c><c>   5</c></rc>
    <rc><c>O </c><c>   5</c></rc>
    <rc><c>O </c><c>   5</c></rc>
    <rc><c>O </c><c>   5</c></rc>
    <rc><c>O </c><c>   5</c></rc>
    <rc><c>O </c><c>   5</c></rc>
    <rc><c>O </c><c>   5</c></rc>
    <rc><c>O </c><c>   5</c></rc>
    <rc><c>O </c><c>   5</c></rc>
    <rc><c>O </c><c>   5</c></rc>
    <rc><c>O </c><c>   5</c></rc>
   </set>
  </array>
  <array name="atomtypes" >
   <dimension dim="1">type</dimension>
   <field type="int">atomspertype</field>
   <field type="string">element</field>
   <field>mass</field>
   <field>valence</field>
   <field type="string">pseudopotential</field>
   <set>
    <rc><c>   8</c><c>Li</c><c>      7.01000000</c><c>      3.00000000</c><c>  PAW_PBE Li_sv 10Sep2004               </c></rc>
    <rc><c>   4</c><c>Mg</c><c>     24.30500000</c><c>      2.00000000</c><c>  PAW_PBE Mg 13Apr2007                  </c></rc>
    <rc><c>  16</c><c>Bi</c><c>    208.98000000</c><c>     15.00000000</c><c>  PAW_PBE Bi_d 06Sep2000                </c></rc>
    <rc><c>  16</c><c>S </c><c>     32.06600000</c><c>      6.00000000</c><c>  PAW_PBE S 06Sep2000                   </c></rc>
    <rc><c>  16</c><c>O </c><c>     16.00000000</c><c>      6.00000000</c><c>  PAW_PBE O 08Apr2002                   </c></rc>
   </set>
  </array>
 </atominfo>
 <structure name="initialpos" >
  <crystal>
   <varray name="basis" >
    <v>      11.17850000       0.00000000       0.00000000 </v>
    <v>       0.00000000       9.57460000       0.00000000 </v>
    <v>       0.00000000       0.00000000      11.18240000 </v>
   </varray>
   <i name="volume">   1196.84853820 </i>
   <varray name="rec_basis" >
    <v>       0.08945744       0.00000000       0.00000000 </v>
    <v>       0.00000000       0.10444301       0.00000000 </v>
    <v>       0.00000000       0.00000000       0.08942624 </v>
   </varray>
  </crystal>
  <varray name="positions" >
   <v>       0.37539000       0.00017000       0.43687000 </v>
   <v>       0.12539000       0.99984000       0.93687000 </v>
   <v>       0.37539000       0.00017000       0.93687000 </v>
   <v>       0.12461000       0.99984000       0.68687000 </v>
   <v>       0.62539000       0.99984000       0.93687000 </v>
   <v>       0.87539000       0.00017000       0.93687000 </v>
   <v>       0.62461000       0.99984000       0.68687000 </v>
   <v>       0.87461000       0.00017000       0.68687000 </v>
   <v>       0.12461000       0.99984000       0.18687000 </v>
   <v>       0.87539000       0.00017000       0.43687000 </v>
   <v>       0.62461000       0.99984000       0.18687000 </v>
   <v>       0.37461000       0.00017000       0.68687000 </v>
   <v>       0.00013000       0.29519000       0.06281000 </v>
   <v>       0.25013000       0.70481000       0.06281000 </v>
   <v>       0.24987000       0.29519000       0.31282000 </v>
   <v>       0.49987000       0.70481000       0.31282000 </v>
   <v>       0.50013000       0.29519000       0.06281000 </v>
   <v>       0.75013000       0.70481000       0.06281000 </v>
   <v>       0.74987000       0.29519000       0.31282000 </v>
   <v>       0.99987000       0.70481000       0.31282000 </v>
   <v>       0.00013000       0.29519000       0.56281000 </v>
   <v>       0.25013000       0.70481000       0.56281000 </v>
   <v>       0.24987000       0.29519000       0.81282000 </v>
   <v>       0.49987000       0.70481000       0.81282000 </v>
   <v>       0.50013000       0.29519000       0.56281000 </v>
   <v>       0.75013000       0.70481000       0.56281000 </v>
   <v>       0.74987000       0.29519000       0.81282000 </v>
   <v>       0.99987000       0.70481000       0.81282000 </v>
   <v>       0.25005000       0.32677000       0.06286000 </v>
   <v>       0.00005000       0.67323000       0.06286000 </v>
   <v>       0.49995000       0.32677000       0.31286000 </v>
   <v>       0.24995000       0.67323000       0.31286000 </v>
   <v>       0.75005000       0.32677000       0.06286000 </v>
   <v>       0.50005000       0.67323000       0.06286000 </v>
   <v>       0.99995000       0.32677000       0.31286000 </v>
   <v>       0.74995000       0.67323000       0.31286000 </v>
   <v>       0.25005000       0.32677000       0.56286000 </v>
   <v>       0.00005000       0.67323000       0.56286000 </v>
   <v>       0.49995000       0.32677000       0.81286000 </v>
   <v>       0.24995000       0.67323000       0.81286000 </v>
   <v>       0.75005000       0.32677000       0.56286000 </v>
   <v>       0.50005000       0.67323000       0.56286000 </v>
   <v>       0.99995000       0.32677000       0.81286000 </v>
   <v>       0.74995000       0.67323000       0.81286000 </v>
   <v>       0.49987000       0.07798000       0.06246000 </v>
   <v>       0.24987000       0.92202000       0.06246000 </v>
   <v>       0.25013000       0.07798000       0.31246000 </v>
   <v>       0.00013000       0.92202000       0.31246000 </v>
   <v>       0.99987000       0.07798000       0.06246000 </v>
   <v>       0.74987000       0.92202000       0.06246000 </v>
   <v>       0.75013000       0.07798000       0.31246000 </v>
   <v>       0.50013000       0.92202000       0.31246000 </v>
   <v>       0.49987000       0.07798000       0.56246000 </v>
   <v>       0.24987000       0.92202000       0.56246000 </v>
   <v>       0.25013000       0.07798000       0.81246000 </v>
   <v>       0.00013000       0.92202000       0.81246000 </v>
   <v>       0.99987000       0.07798000       0.56246000 </v>
   <v>       0.74987000       0.92202000       0.56246000 </v>
   <v>       0.75013000       0.07798000       0.81246000 </v>
   <v>       0.50013000       0.92202000       0.81246000 </v>
  </varray>
 </structure>
 <calculation>
  <scstep>
   <time name="dav">   60.45   60.55</time>
   <time name="total">   60.53   60.63</time>
   <energy>
    <i name="alphaZ">   1067.11773629 </i>
    <i name="ewald"> -30629.27693151 </i>
    <i name="hartreedc"> -12724.34134695 </i>
    <i name="XCdc">   1321.06598445 </i>
    <i name="pawpsdc">  36729.48549953 </i>
    <i name="pawaedc"> -36149.63912807 </i>
    <i name="eentropy">      0.00000000 </i>
    <i name="bandstr">   1844.66685285 </i>
    <i name="atom">  44408.54722957 </i>
    <i name="e_fr_energy">   5867.62589616 </i>
    <i name="e_wo_entrp">   5867.62589616 </i>
    <i name="e_0_energy">   5867.62589616 </i>
   </energy>
  </scstep>
  <scstep>
   <time name="dav">   60.25   60.44</time>
   <time name="total">   60.26   60.45</time>
   <energy>
    <i name="e_fr_energy">    796.24336219 </i>
    <i name="e_wo_entrp">    796.24336219 </i>
    <i name="e_0_energy">    796.24336219 </i>
   </energy>
  </scstep>
  <scstep>
   <time name="dav">   70.65   71.08</time>
   <time name="total">   70.65   71.08</time>
   <energy>
    <i name="e_fr_energy">   -242.14636367 </i>
    <i name="e_wo_entrp">   -242.14636367 </i>
    <i name="e_0_energy">   -242.14636367 </i>
   </energy>
  </scstep>
  <scstep>
   <time name="dav">   72.67   73.56</time>
   <time name="total">   72.67   73.56</time>
   <energy>
    <i name="e_fr_energy">   -341.12235769 </i>
    <i name="e_wo_entrp">   -341.12235769 </i>
    <i name="e_0_energy">   -341.12235769 </i>
   </energy>
  </scstep>
  <scstep>
   <time name="dav">   95.87   96.48</time>
   <time name="total">   96.60   97.20</time>
   <energy>
    <i name="e_fr_energy">   -349.37735639 </i>
    <i name="e_wo_entrp">   -349.37735639 </i>
    <i name="e_0_energy">   -349.37735639 </i>
   </energy>
  </scstep>
  <scstep>
   <time name="dav">   85.59   86.28</time>
   <time name="total">   86.39   87.10</time>
   <energy>
    <i name="e_fr_energy">   -292.51772250 </i>
    <i name="e_wo_entrp">   -292.51772250 </i>
    <i name="e_0_energy">   -292.51772250 </i>
   </energy>
  </scstep>
  <scstep>
   <time name="dav">   66.83   66.86</time>
   <time name="total">   67.62   67.66</time>
   <energy>
    <i name="e_fr_energy">   -295.21932963 </i>
    <i name="e_wo_entrp">   -295.21932963 </i>
    <i name="e_0_energy">   -295.21932963 </i>
   </energy>
  </scstep>
  <scstep>
   <time name="dav">   77.82   77.83</time>
   <time name="total">   78.60   78.62</time>
   <energy>
    <i name="e_fr_energy">   -294.12121148 </i>
    <i name="e_wo_entrp">   -294.12121148 </i>
    <i name="e_0_energy">   -294.12121148 </i>
   </energy>
  </scstep>
  <scstep>
   <time name="dav">   77.03   77.11</time>
   <time name="total">   77.82   77.91</time>
   <energy>
    <i name="e_fr_energy">   -293.55577026 </i>
    <i name="e_wo_entrp">   -293.55577026 </i>
    <i name="e_0_energy">   -293.55577026 </i>
   </energy>
  </scstep>
  <scstep>
   <time name="dav">   72.16   72.18</time>
   <time name="total">   72.95   72.97</time>
   <energy>
    <i name="e_fr_energy">   -293.58221126 </i>
    <i name="e_wo_entrp">   -293.58221126 </i>
    <i name="e_0_energy">   -293.58221126 </i>
   </energy>
  </scstep>
  <scstep>
   <time name="dav">   81.23   81.25</time>
   <time name="total">   82.04   82.07</time>
   <energy>
    <i name="e_fr_energy">   -293.59016928 </i>
    <i name="e_wo_entrp">   -293.59016928 </i>
    <i name="e_0_energy">   -293.59016928 </i>
   </energy>
  </scstep>
  <scstep>
   <time name="dav">   86.29   86.46</time>
   <time name="total">   87.08   87.25</time>
   <energy>
    <i name="e_fr_energy">   -293.59317355 </i>
    <i name="e_wo_entrp">   -293.59317355 </i>
    <i name="e_0_energy">   -293.59317355 </i>
   </energy>
  </scstep>
  <scstep>
   <time name="dav">   70.29   71.05</time>
   <time name="total">   71.09   71.84</time>
   <energy>
    <i name="e_fr_energy">   -293.59439470 </i>
    <i name="e_wo_entrp">   -293.59439470 </i>
    <i name="e_0_energy">   -293.59439470 </i>
   </energy>
  </scstep>
  <scstep>
   <time name="dav">   80.40   81.07</time>
   <time name="total">   81.20   81.86</time>
   <energy>
    <i name="e_fr_energy">   -293.59453125 </i>
    <i name="e_wo_entrp">   -293.59453125 </i>
    <i name="e_0_energy">   -293.59453125 </i>
   </energy>
  </scstep>
  <scstep>
   <time name="dav">   79.66   79.93</time>
   <time name="total">   80.46   80.73</time>
   <energy>
    <i name="e_fr_energy">   -293.59456391 </i>
    <i name="e_wo_entrp">   -293.59456391 </i>
    <i name="e_0_energy">   -293.59456391 </i>
   </energy>
  </scstep>
  <scstep>
   <time name="dav">   63.06   63.38</time>
   <time name="total">   63.78   64.22</time>
   <energy>
    <i name="e_fr_energy">   -293.59457963 </i>
    <i name="e_wo_entrp">   -293.59457963 </i>
    <i name="e_0_energy">   -293.59457963 </i>
   </energy>
  </scstep>
  <scstep>
   <time name="dav">   69.80   69.89</time>
   <time name="total">   70.59   70.68</time>
   <energy>
    <i name="e_fr_energy">   -293.59458186 </i>
    <i name="e_wo_entrp">   -293.59458186 </i>
    <i name="e_0_energy">   -293.59458186 </i>
   </energy>
  </scstep>
  <scstep>
   <time name="dav">   59.03   59.03</time>
   <time name="total">   59.10   59.10</time>
   <energy>
    <i name="alphaZ">   1067.11773629 </i>
    <i name="ewald"> -30629.27693151 </i>
    <i name="hartreedc"> -12961.95047362 </i>
    <i name="XCdc">   1345.27516455 </i>
    <i name="pawpsdc">  43756.62076893 </i>
    <i name="pawaedc"> -43150.74418826 </i>
    <i name="eentropy">      0.00000000 </i>
    <i name="bandstr">  -4129.18388826 </i>
    <i name="atom">  44408.54722957 </i>
    <i name="e_fr_energy">   -293.59458232 </i>
    <i name="e_wo_entrp">   -293.59458232 </i>
    <i name="e_0_energy">   -293.59458232 </i>
   </energy>
  </scstep>
  <structure>
   <crystal>
    <varray name="basis" >
     <v>      11.17850000       0.00000000       0.00000000 </v>
     <v>       0.00000000       9.57460000       0.00000000 </v>
     <v>       0.00000000       0.00000000      11.18240000 </v>
    </varray>
    <i name="volume">   1196.84853820 </i>
    <varray name="rec_basis" >
     <v>       0.08945744       0.00000000       0.00000000 </v>
     <v>       0.00000000       0.10444301       0.00000000 </v>
     <v>       0.00000000       0.00000000       0.08942624 </v>
    </varray>
   </crystal>
   <varray name="positions" >
    <v>       0.37539000       0.00017000       0.43687000 </v>
    <v>       0.12539000       0.99984000       0.93687000 </v>
    <v>       0.37539000       0.00017000       0.93687000 </v>
    <v>       0.12461000       0.99984000       0.68687000 </v>
    <v>       0.62539000       0.99984000       0.93687000 </v>
    <v>       0.87539000       0.00017000       0.93687000 </v>
    <v>       0.62461000       0.99984000       0.68687000 </v>
    <v>       0.87461000       0.00017000       0.68687000 </v>
    <v>       0.12461000       0.99984000       0.18687000 </v>
    <v>       0.87539000       0.00017000       0.43687000 </v>
    <v>       0.62461000       0.99984000       0.18687000 </v>
    <v>       0.37461000       0.00017000       0.68687000 </v>
    <v>       0.00013000       0.29519000       0.06281000 </v>
    <v>       0.25013000       0.70481000       0.06281000 </v>
    <v>       0.24987000       0.29519000       0.31282000 </v>
    <v>       0.49987000       0.70481000       0.31282000 </v>
    <v>       0.50013000       0.29519000       0.06281000 </v>
    <v>       0.75013000       0.70481000       0.06281000 </v>
    <v>       0.74987000       0.29519000       0.31282000 </v>
    <v>       0.99987000       0.70481000       0.31282000 </v>
    <v>       0.00013000       0.29519000       0.56281000 </v>
    <v>       0.25013000       0.70481000       0.56281000 </v>
    <v>       0.24987000       0.29519000       0.81282000 </v>
    <v>       0.49987000       0.70481000       0.81282000 </v>
    <v>       0.50013000       0.29519000       0.56281000 </v>
    <v>       0.75013000       0.70481000       0.56281000 </v>
    <v>       0.74987000       0.29519000       0.81282000 </v>
    <v>       0.99987000       0.70481000       0.81282000 </v>
    <v>       0.25005000       0.32677000       0.06286000 </v>
    <v>       0.00005000       0.67323000       0.06286000 </v>
    <v>       0.49995000       0.32677000       0.31286000 </v>
    <v>       0.24995000       0.67323000       0.31286000 </v>
    <v>       0.75005000       0.32677000       0.06286000 </v>
    <v>       0.50005000       0.67323000       0.06286000 </v>
    <v>       0.99995000       0.32677000       0.31286000 </v>
    <v>       0.74995000       0.67323000       0.31286000 </v>
    <v>       0.25005000       0.32677000       0.56286000 </v>
    <v>       0.00005000       0.67323000       0.56286000 </v>
    <v>       0.49995000       0.32677000       0.81286000 </v>
    <v>       0.24995000       0.67323000       0.81286000 </v>
    <v>       0.75005000       0.32677000       0.56286000 </v>
    <v>       0.50005000       0.67323000       0.56286000 </v>
    <v>       0.99995000       0.32677000       0.81286000 </v>
    <v>       0.74995000       0.67323000       0.81286000 </v>
    <v>       0.49987000       0.07798000       0.06246000 </v>
    <v>       0.24987000       0.92202000       0.06246000 </v>
    <v>       0.25013000       0.07798000       0.31246000 </v>
    <v>       0.00013000       0.92202000       0.31246000 </v>
    <v>       0.99987000       0.07798000       0.06246000 </v>
    <v>       0.74987000       0.92202000       0.06246000 </v>
    <v>       0.75013000       0.07798000       0.31246000 </v>
    <v>       0.50013000       0.92202000       0.31246000 </v>
    <v>       0.49987000       0.07798000       0.56246000 </v>
    <v>       0.24987000       0.92202000       0.56246000 </v>
    <v>       0.25013000       0.07798000       0.81246000 </v>
    <v>       0.00013000       0.92202000       0.81246000 </v>
    <v>       0.99987000       0.07798000       0.56246000 </v>
    <v>       0.74987000       0.92202000       0.56246000 </v>
    <v>       0.75013000       0.07798000       0.81246000 </v>
    <v>       0.50013000       0.92202000       0.81246000 </v>
   </varray>
  </structure>
  <varray name="forces" >
   <v>      -0.00730170      -0.00139964      -0.84022293 </v>
   <v>      -0.08759211      -0.06573447      -0.02344578 </v>
   <v>      -0.00653154      -0.00050944       0.86910216 </v>
   <v>      -0.39918452      -0.06594521      -0.44623957 </v>
   <v>       0.08129712       0.06612466      -0.02263222 </v>
   <v>      -0.00869257      -0.00049225       0.38283673 </v>
   <v>       0.41743292       0.06442861      -0.44552168 </v>
   <v>       0.00269131      -0.00130985       0.11902755 </v>
   <v>       0.18438611       0.11977441       0.89242239 </v>
   <v>      -0.02552708      -0.00577355      -0.67814835 </v>
   <v>      -0.13650178      -0.10766477       0.89361052 </v>
   <v>       0.01900641      -0.00573414      -0.47329149 </v>
   <v>      -0.19689057      -0.00836355       0.14657965 </v>
   <v>       0.19399282       0.00240744       0.27134145 </v>
   <v>       0.12226523      -1.05089562       0.04242555 </v>
   <v>      -0.10701131       1.03790570       0.04459647 </v>
   <v>      -0.20588433       0.00291614       0.27005242 </v>
   <v>       0.18332059       0.01387706       0.14776846 </v>
   <v>      -0.05715289      -0.11985500      -0.00974159 </v>
   <v>       0.06835043       0.10160705      -0.00919845 </v>
   <v>       0.18065350       0.00100560      -0.15385209 </v>
   <v>      -0.20278961      -0.05580980      -0.41543878 </v>
   <v>      -0.13585503       1.05375749       0.08373519 </v>
   <v>       0.14631630      -1.04549062       0.08061001 </v>
   <v>       0.19285578       0.05862284      -0.41488607 </v>
   <v>      -0.19343604       0.01262985      -0.15458523 </v>
   <v>       0.06825614       0.05184716      -0.00182424 </v>
   <v>      -0.05730917      -0.05153676      -0.00282759 </v>
   <v>      -0.05393391       0.14774659      -0.24844859 </v>
   <v>       0.05975874      -0.14399663      -0.07199372 </v>
   <v>       0.13536894       0.15591856      -0.03910281 </v>
   <v>      -0.13477742      -0.15612384      -0.03964415 </v>
   <v>      -0.06080858       0.14569172      -0.07551121 </v>
   <v>       0.05198982      -0.14664305      -0.24444815 </v>
   <v>      -0.09437498       0.12869947       0.00780872 </v>
   <v>       0.09564627      -0.12983926       0.00552902 </v>
   <v>       0.06677100       0.12409931       0.33274822 </v>
   <v>      -0.04884989      -0.14467465       0.07086918 </v>
   <v>      -0.12381774       0.10838193      -0.04999629 </v>
   <v>       0.12389725      -0.10895850      -0.04981377 </v>
   <v>       0.04921366       0.14495453       0.07340073 </v>
   <v>      -0.06886877      -0.12537263       0.32933411 </v>
   <v>       0.07997719       0.15651346      -0.00541504 </v>
   <v>      -0.07768045      -0.15759201      -0.00409160 </v>
   <v>       1.06825354       0.04111549      -0.37100048 </v>
   <v>      -1.06058781      -0.04351016      -0.36885730 </v>
   <v>      -0.54512393       0.98680691      -0.49884274 </v>
   <v>      -0.07044281      -0.33926974       0.01094558 </v>
   <v>       1.08712616       0.05115658      -0.24352655 </v>
   <v>      -1.07889227      -0.05418800      -0.24169608 </v>
   <v>       0.05501294       0.34260874       0.00504704 </v>
   <v>       0.52164327      -0.98565520      -0.49054506 </v>
   <v>      -1.04830131      -0.09136240       1.29168580 </v>
   <v>       1.04969471       0.09021583       1.28910295 </v>
   <v>       0.54679034      -0.84502957      -0.46939457 </v>
   <v>       0.07360028       0.08119756      -0.00609765 </v>
   <v>      -1.07740317       0.04207119       0.22061206 </v>
   <v>       1.09809420      -0.04267246       0.21246674 </v>
   <v>      -0.08317794      -0.07994634      -0.00566894 </v>
   <v>      -0.56896168       0.84726720      -0.47770791 </v>
  </varray>
  <varray name="stress" >
   <v>     -10.89303591      -0.24420127      -0.06885710 </v>
   <v>      -0.24420103     -13.72715169      -0.00195365 </v>
   <v>      -0.06885731      -0.00195368      -6.66276335 </v>
  </varray>
  <energy>
   <i name="e_fr_energy">   -307.27046023 </i>
   <i name="e_wo_entrp">   -307.27046023 </i>
   <i name="e_0_energy">      0.00000000 </i>
  </energy>
  <time name="totalsc"> 1448.36 1453.92</time>
  <eigenvalues>
   <array>
    <dimension dim="1">band</dimension>
    <dimension dim="2">kpoint</dimension>
    <dimension dim="3">spin</dimension>
    <field>eigene</field>
    <field>occ</field>
    <set>
     <set comment="spin 1">
      <set comment="kpoint 1">
       <r>  -40.2086    1.0000 </r>
       <r>  -40.0695    1.0000 </r>
       <r>  -40.0673    1.0000 </r>
       <r>  -40.0448    1.0000 </r>
       <r>  -40.0428    1.0000 </r>
       <r>  -39.9052    1.0000 </r>
       <r>  -39.8212    1.0000 </r>
       <r>  -39.4071    1.0000 </r>
       <r>  -18.9422    1.0000 </r>
       <r>  -18.9403    1.0000 </r>
       <r>  -18.8715    1.0000 </r>
       <r>  -18.8705    1.0000 </r>
       <r>  -18.8646    1.0000 </r>
       <r>  -18.8636    1.0000 </r>
       <r>  -18.7679    1.0000 </r>
       <r>  -18.7660    1.0000 </r>
       <r>  -18.7556    1.0000 </r>
       <r>  -18.7541    1.0000 </r>
       <r>  -18.7274    1.0000 </r>
       <r>  -18.7266    1.0000 </r>
       <r>  -18.7176    1.0000 </r>
       <r>  -18.7169    1.0000 </r>
       <r>  -18.7087    1.0000 </r>
       <r>  -18.7076    1.0000 </r>
       <r>  -18.6768    1.0000 </r>
       <r>  -18.6757    1.0000 </r>
       <r>  -18.6694    1.0000 </r>
       <r>  -18.6679    1.0000 </r>
       <r>  -18.6662    1.0000 </r>
       <r>  -18.6650    1.0000 </r>
       <r>  -18.6626    1.0000 </r>
       <r>  -18.6588    1.0000 </r>
       <r>  -18.6576    1.0000 </r>
       <r>  -18.6567    1.0000 </r>
       <r>  -18.6550    1.0000 </r>
       <r>  -18.6531    1.0000 </r>
       <r>  -18.6517    1.0000 </r>
       <r>  -18.6507    1.0000 </r>
       <r>  -18.6491    1.0000 </r>
       <r>  -18.6480    1.0000 </r>
       <r>  -18.6457    1.0000 </r>
       <r>  -18.6444    1.0000 </r>
       <r>  -18.6432    1.0000 </r>
       <r>  -18.6406    1.0000 </r>
       <r>  -18.6395    1.0000 </r>
       <r>  -18.6381    1.0000 </r>
       <r>  -18.6377    1.0000 </r>
       <r>  -18.6357    1.0000 </r>
       <r>  -18.5684    1.0000 </r>
       <r>  -18.5663    1.0000 </r>
       <r>  -18.5647    1.0000 </r>
       <r>  -18.5633    1.0000 </r>
       <r>  -18.5567    1.0000 </r>
       <r>  -18.5557    1.0000 </r>
       <r>  -18.5546    1.0000 </r>
       <r>  -18.5518    1.0000 </r>
       <r>  -18.5410    1.0000 </r>
       <r>  -18.5348    1.0000 </r>
       <r>  -18.5197    1.0000 </r>
       <r>  -18.5180    1.0000 </r>
       <r>  -18.5171    1.0000 </r>
       <r>  -18.5155    1.0000 </r>
       <r>  -18.5077    1.0000 </r>
       <r>  -18.5027    1.0000 </r>
       <r>  -18.5018    1.0000 </r>
       <r>  -18.5005    1.0000 </r>
       <r>  -18.4982    1.0000 </r>
       <r>  -18.4961    1.0000 </r>
       <r>  -18.4925    1.0000 </r>
       <r>  -18.4875    1.0000 </r>
       <r>  -18.4864    1.0000 </r>
       <r>  -18.4852    1.0000 </r>
       <r>  -18.4841    1.0000 </r>
       <r>  -18.4820    1.0000 </r>
       <r>  -18.4160    1.0000 </r>
       <r>  -18.4098    1.0000 </r>
       <r>  -18.4050    1.0000 </r>
       <r>  -18.4011    1.0000 </r>
       <r>  -18.3925    1.0000 </r>
       <r>  -18.3885    1.0000 </r>
       <r>  -18.3850    1.0000 </r>
       <r>  -18.3789    1.0000 </r>
       <r>  -18.3155    1.0000 </r>
       <r>  -18.3104    1.0000 </r>
       <r>  -18.2065    1.0000 </r>
       <r>  -18.2017    1.0000 </r>
       <r>  -18.1790    1.0000 </r>
       <r>  -18.1742    1.0000 </r>
       <r>  -13.5733    1.0000 </r>
       <r>  -13.4649    1.0000 </r>
       <r>  -12.9043    1.0000 </r>
       <r>  -12.8434    1.0000 </r>
       <r>  -12.7907    1.0000 </r>
       <r>  -12.7840    1.0000 </r>
       <r>  -12.7575    1.0000 </r>
       <r>  -12.7467    1.0000 </r>
       <r>  -12.7171    1.0000 </r>
       <r>  -12.6965    1.0000 </r>
       <r>  -12.6720    1.0000 </r>
       <r>  -12.6483    1.0000 </r>
       <r>  -12.5854    1.0000 </r>
       <r>  -12.5397    1.0000 </r>
       <r>  -11.9954    1.0000 </r>
       <r>  -11.9411    1.0000 </r>
       <r>   -9.3398    1.0000 </r>
       <r>   -9.0446    1.0000 </r>
       <r>   -8.5449    1.0000 </r>
       <r>   -8.5112    1.0000 </r>
       <r>   -8.4995    1.0000 </r>
       <r>   -8.4541    1.0000 </r>
       <r>   -8.3220    1.0000 </r>
       <r>   -8.2905    1.0000 </r>
       <r>   -8.2724    1.0000 </r>
       <r>   -8.2300    1.0000 </r>
       <r>   -8.0403    1.0000 </r>
       <r>   -8.0393    1.0000 </r>
       <r>   -8.0049    1.0000 </r>
       <r>   -8.0036    1.0000 </r>
       <r>   -7.3681    1.0000 </r>
       <r>   -7.3673    1.0000 </r>
       <r>   -6.3770    1.0000 </r>
       <r>   -6.3757    1.0000 </r>
       <r>   -6.3596    1.0000 </r>
       <r>   -6.3569    1.0000 </r>
       <r>   -5.5394    1.0000 </r>
       <r>   -5.5053    1.0000 </r>
       <r>   -5.3709    1.0000 </r>
       <r>   -5.3531    1.0000 </r>
       <r>   -5.3478    1.0000 </r>
       <r>   -5.2592    1.0000 </r>
       <r>   -5.2217    1.0000 </r>
       <r>   -5.1857    1.0000 </r>
       <r>   -5.1359    1.0000 </r>
       <r>   -5.0633    1.0000 </r>
       <r>   -3.8194    1.0000 </r>
       <r>   -3.6689    1.0000 </r>
       <r>   -1.4295    1.0000 </r>
       <r>   -1.3570    1.0000 </r>
       <r>   -1.1017    1.0000 </r>
       <r>   -1.0265    1.0000 </r>
       <r>   -0.5511    1.0000 </r>
       <r>   -0.5168    1.0000 </r>
       <r>   -0.5043    1.0000 </r>
       <r>   -0.4707    1.0000 </r>
       <r>   -0.1903    1.0000 </r>
       <r>   -0.1754    1.0000 </r>
       <r>   -0.1670    1.0000 </r>
       <r>   -0.1498    1.0000 </r>
       <r>    0.0222    1.0000 </r>
       <r>    0.2437    1.0000 </r>
       <r>    0.3385    1.0000 </r>
       <r>    0.4362    1.0000 </r>
       <r>    0.4451    1.0000 </r>
       <r>    0.5312    1.0000 </r>
       <r>    0.5622    1.0000 </r>
       <r>    0.5792    1.0000 </r>
       <r>    0.6999    1.0000 </r>
       <r>    0.7244    1.0000 </r>
       <r>    0.7342    1.0000 </r>
       <r>    0.7699    1.0000 </r>
       <r>    0.8604    1.0000 </r>
       <r>    0.8650    1.0000 </r>
       <r>    0.9448    1.0000 </r>
       <r>    0.9632    1.0000 </r>
       <r>    0.9663    1.0000 </r>
       <r>    0.9886    1.0000 </r>
       <r>    1.0549    1.0000 </r>
       <r>    1.0713    1.0000 </r>
       <r>    1.1001    1.0000 </r>
       <r>    1.1295    1.0000 </r>
       <r>    1.1529    1.0000 </r>
       <r>    1.2120    1.0000 </r>
       <r>    1.2275    1.0000 </r>
       <r>    1.3106    1.0000 </r>
       <r>    1.4065    1.0000 </r>
       <r>    1.4543    1.0000 </r>
       <r>    1.5034    1.0000 </r>
       <r>    1.5316    1.0000 </r>
       <r>    1.5397    1.0000 </r>
       <r>    1.6867    1.0000 </r>
       <r>    1.6937    1.0000 </r>
       <r>    1.7240    1.0000 </r>
       <r>    1.7525    1.0000 </r>
       <r>    1.7643    1.0000 </r>
       <r>    1.7859    1.0000 </r>
       <r>    1.8297    1.0000 </r>
       <r>    1.8675    1.0000 </r>
       <r>    1.9694    1.0000 </r>
       <r>    2.0777    1.0000 </r>
       <r>    2.1520    1.0000 </r>
       <r>    2.1903    1.0000 </r>
       <r>    2.2434    1.0000 </r>
       <r>    2.3313    1.0000 </r>
       <r>    2.3530    1.0000 </r>
       <r>    2.4415    1.0000 </r>
       <r>    2.5468    1.0000 </r>
       <r>    2.5602    1.0000 </r>
       <r>    2.5608    1.0000 </r>
       <r>    2.5777    1.0000 </r>
       <r>    2.5848    1.0000 </r>
       <r>    2.6080    1.0000 </r>
       <r>    2.6311    1.0000 </r>
       <r>    2.6756    1.0000 </r>
       <r>    2.6967    1.0000 </r>
       <r>    2.7081    1.0000 </r>
       <r>    2.7932    1.0000 </r>
       <r>    2.8009    1.0000 </r>
       <r>    2.8157    1.0000 </r>
       <r>    2.8446    1.0000 </r>
       <r>    2.8740    1.0000 </r>
       <r>    2.8942    1.0000 </r>
       <r>    2.9483    1.0000 </r>
       <r>    2.9590    1.0000 </r>
       <r>    2.9815    1.0000 </r>
       <r>    3.0099    1.0000 </r>
       <r>    3.1172    1.0000 </r>
       <r>    3.1201    1.0000 </r>
       <r>    3.1325    1.0000 </r>
       <r>    3.1615    1.0000 </r>
       <r>    3.1652    1.0000 </r>
       <r>    3.1859    1.0000 </r>
       <r>    3.2266    1.0000 </r>
       <r>    3.3030    1.0000 </r>
       <r>    3.3325    1.0000 </r>
       <r>    3.3768    1.0000 </r>
       <r>    3.4647    1.0000 </r>
       <r>    3.5523    1.0000 </r>
       <r>    3.7759    1.0000 </r>
       <r>    4.1701    1.0000 </r>
       <r>    4.1748    1.0000 </r>
       <r>    4.2191    1.0000 </r>
       <r>    4.2208    1.0000 </r>
       <r>    5.0409    0.0000 </r>
       <r>    5.0450    0.0000 </r>
       <r>    5.1476    0.0000 </r>
       <r>    5.1492    0.0000 </r>
       <r>    5.7331    0.0000 </r>
       <r>    5.7368    0.0000 </r>
       <r>    5.8030    0.0000 </r>
       <r>    5.8048    0.0000 </r>
       <r>    6.0883    0.0000 </r>
       <r>    6.1099    0.0000 </r>
       <r>    6.1345    0.0000 </r>
       <r>    6.1410    0.0000 </r>
       <r>    6.2174    0.0000 </r>
       <r>    6.2316    0.0000 </r>
       <r>    6.2601    0.0000 </r>
       <r>    6.2646    0.0000 </r>
       <r>    7.1449    0.0000 </r>
       <r>    7.1486    0.0000 </r>
       <r>    7.2222    0.0000 </r>
       <r>    7.2772    0.0000 </r>
       <r>    7.8030    0.0000 </r>
       <r>    7.8776    0.0000 </r>
       <r>    7.9104    0.0000 </r>
       <r>    7.9343    0.0000 </r>
       <r>    7.9755    0.0000 </r>
       <r>    8.0322    0.0000 </r>
       <r>    8.1089    0.0000 </r>
       <r>    8.1920    0.0000 </r>
       <r>    8.3116    0.0000 </r>
       <r>    8.5206    0.0000 </r>
       <r>    8.6443    0.0000 </r>
       <r>    8.7687    0.0000 </r>
       <r>    8.7833    0.0000 </r>
       <r>    8.9059    0.0000 </r>
       <r>    8.9198    0.0000 </r>
       <r>    8.9777    0.0000 </r>
       <r>    8.9883    0.0000 </r>
       <r>    9.0347    0.0000 </r>
       <r>    9.0373    0.0000 </r>
       <r>    9.1261    0.0000 </r>
       <r>    9.1302    0.0000 </r>
       <r>    9.1443    0.0000 </r>
       <r>    9.2027    0.0000 </r>
       <r>    9.2590    0.0000 </r>
       <r>    9.4401    0.0000 </r>
       <r>    9.4989    0.0000 </r>
       <r>    9.5263    0.0000 </r>
       <r>    9.5585    0.0000 </r>
      </set>
      <set comment="kpoint 2">
       <r>  -40.2086    1.0000 </r>
       <r>  -40.0695    1.0000 </r>
       <r>  -40.0672    1.0000 </r>
       <r>  -40.0448    1.0000 </r>
       <r>  -40.0428    1.0000 </r>
       <r>  -39.9052    1.0000 </r>
       <r>  -39.8212    1.0000 </r>
       <r>  -39.4071    1.0000 </r>
       <r>  -18.9422    1.0000 </r>
       <r>  -18.9403    1.0000 </r>
       <r>  -18.8714    1.0000 </r>
       <r>  -18.8704    1.0000 </r>
       <r>  -18.8646    1.0000 </r>
       <r>  -18.8635    1.0000 </r>
       <r>  -18.7679    1.0000 </r>
       <r>  -18.7660    1.0000 </r>
       <r>  -18.7556    1.0000 </r>
       <r>  -18.7541    1.0000 </r>
       <r>  -18.7275    1.0000 </r>
       <r>  -18.7267    1.0000 </r>
       <r>  -18.7175    1.0000 </r>
       <r>  -18.7169    1.0000 </r>
       <r>  -18.7087    1.0000 </r>
       <r>  -18.7075    1.0000 </r>
       <r>  -18.6767    1.0000 </r>
       <r>  -18.6755    1.0000 </r>
       <r>  -18.6693    1.0000 </r>
       <r>  -18.6678    1.0000 </r>
       <r>  -18.6663    1.0000 </r>
       <r>  -18.6651    1.0000 </r>
       <r>  -18.6628    1.0000 </r>
       <r>  -18.6591    1.0000 </r>
       <r>  -18.6566    1.0000 </r>
       <r>  -18.6558    1.0000 </r>
       <r>  -18.6554    1.0000 </r>
       <r>  -18.6538    1.0000 </r>
       <r>  -18.6525    1.0000 </r>
       <r>  -18.6511    1.0000 </r>
       <r>  -18.6491    1.0000 </r>
       <r>  -18.6478    1.0000 </r>
       <r>  -18.6458    1.0000 </r>
       <r>  -18.6445    1.0000 </r>
       <r>  -18.6430    1.0000 </r>
       <r>  -18.6413    1.0000 </r>
       <r>  -18.6389    1.0000 </r>
       <r>  -18.6380    1.0000 </r>
       <r>  -18.6373    1.0000 </r>
       <r>  -18.6358    1.0000 </r>
       <r>  -18.5683    1.0000 </r>
       <r>  -18.5663    1.0000 </r>
       <r>  -18.5647    1.0000 </r>
       <r>  -18.5632    1.0000 </r>
       <r>  -18.5567    1.0000 </r>
       <r>  -18.5557    1.0000 </r>
       <r>  -18.5546    1.0000 </r>
       <r>  -18.5518    1.0000 </r>
       <r>  -18.5410    1.0000 </r>
       <r>  -18.5347    1.0000 </r>
       <r>  -18.5197    1.0000 </r>
       <r>  -18.5180    1.0000 </r>
       <r>  -18.5171    1.0000 </r>
       <r>  -18.5155    1.0000 </r>
       <r>  -18.5077    1.0000 </r>
       <r>  -18.5027    1.0000 </r>
       <r>  -18.5018    1.0000 </r>
       <r>  -18.5005    1.0000 </r>
       <r>  -18.4982    1.0000 </r>
       <r>  -18.4961    1.0000 </r>
       <r>  -18.4925    1.0000 </r>
       <r>  -18.4875    1.0000 </r>
       <r>  -18.4864    1.0000 </r>
       <r>  -18.4852    1.0000 </r>
       <r>  -18.4840    1.0000 </r>
       <r>  -18.4820    1.0000 </r>
       <r>  -18.4160    1.0000 </r>
       <r>  -18.4098    1.0000 </r>
       <r>  -18.4050    1.0000 </r>
       <r>  -18.4011    1.0000 </r>
       <r>  -18.3925    1.0000 </r>
       <r>  -18.3885    1.0000 </r>
       <r>  -18.3850    1.0000 </r>
       <r>  -18.3788    1.0000 </r>
       <r>  -18.3155    1.0000 </r>
       <r>  -18.3104    1.0000 </r>
       <r>  -18.2065    1.0000 </r>
       <r>  -18.2017    1.0000 </r>
       <r>  -18.1790    1.0000 </r>
       <r>  -18.1742    1.0000 </r>
       <r>  -13.5727    1.0000 </r>
       <r>  -13.4656    1.0000 </r>
       <r>  -12.8893    1.0000 </r>
       <r>  -12.8568    1.0000 </r>
       <r>  -12.7997    1.0000 </r>
       <r>  -12.7845    1.0000 </r>
       <r>  -12.7607    1.0000 </r>
       <r>  -12.7361    1.0000 </r>
       <r>  -12.7329    1.0000 </r>
       <r>  -12.6729    1.0000 </r>
       <r>  -12.6665    1.0000 </r>
       <r>  -12.6601    1.0000 </r>
       <r>  -12.5846    1.0000 </r>
       <r>  -12.5414    1.0000 </r>
       <r>  -11.9956    1.0000 </r>
       <r>  -11.9409    1.0000 </r>
       <r>   -9.1370    1.0000 </r>
       <r>   -9.1158    1.0000 </r>
       <r>   -8.8626    1.0000 </r>
       <r>   -8.8391    1.0000 </r>
       <r>   -8.3361    1.0000 </r>
       <r>   -8.3322    1.0000 </r>
       <r>   -8.3264    1.0000 </r>
       <r>   -8.3208    1.0000 </r>
       <r>   -8.1476    1.0000 </r>
       <r>   -8.1444    1.0000 </r>
       <r>   -8.1399    1.0000 </r>
       <r>   -8.1354    1.0000 </r>
       <r>   -7.7011    1.0000 </r>
       <r>   -7.7004    1.0000 </r>
       <r>   -7.5915    1.0000 </r>
       <r>   -7.5897    1.0000 </r>
       <r>   -5.9908    1.0000 </r>
       <r>   -5.9513    1.0000 </r>
       <r>   -5.9096    1.0000 </r>
       <r>   -5.9017    1.0000 </r>
       <r>   -5.8554    1.0000 </r>
       <r>   -5.7806    1.0000 </r>
       <r>   -5.7610    1.0000 </r>
       <r>   -5.7517    1.0000 </r>
       <r>   -5.6423    1.0000 </r>
       <r>   -5.5977    1.0000 </r>
       <r>   -5.5110    1.0000 </r>
       <r>   -5.4993    1.0000 </r>
       <r>   -4.4386    1.0000 </r>
       <r>   -4.4304    1.0000 </r>
       <r>   -4.2715    1.0000 </r>
       <r>   -4.2648    1.0000 </r>
       <r>   -1.1591    1.0000 </r>
       <r>   -1.1406    1.0000 </r>
       <r>   -0.8237    1.0000 </r>
       <r>   -0.8115    1.0000 </r>
       <r>   -0.4682    1.0000 </r>
       <r>   -0.3233    1.0000 </r>
       <r>    0.0034    1.0000 </r>
       <r>    0.0330    1.0000 </r>
       <r>    0.0543    1.0000 </r>
       <r>    0.0589    1.0000 </r>
       <r>    0.1673    1.0000 </r>
       <r>    0.1983    1.0000 </r>
       <r>    0.2319    1.0000 </r>
       <r>    0.2407    1.0000 </r>
       <r>    0.2891    1.0000 </r>
       <r>    0.3053    1.0000 </r>
       <r>    0.4941    1.0000 </r>
       <r>    0.5434    1.0000 </r>
       <r>    0.5490    1.0000 </r>
       <r>    0.5699    1.0000 </r>
       <r>    0.5879    1.0000 </r>
       <r>    0.6027    1.0000 </r>
       <r>    0.6725    1.0000 </r>
       <r>    0.6793    1.0000 </r>
       <r>    0.7899    1.0000 </r>
       <r>    0.8358    1.0000 </r>
       <r>    0.8928    1.0000 </r>
       <r>    0.9090    1.0000 </r>
       <r>    0.9161    1.0000 </r>
       <r>    1.0327    1.0000 </r>
       <r>    1.0375    1.0000 </r>
       <r>    1.0981    1.0000 </r>
       <r>    1.1683    1.0000 </r>
       <r>    1.2401    1.0000 </r>
       <r>    1.2665    1.0000 </r>
       <r>    1.2761    1.0000 </r>
       <r>    1.2907    1.0000 </r>
       <r>    1.3082    1.0000 </r>
       <r>    1.3404    1.0000 </r>
       <r>    1.3628    1.0000 </r>
       <r>    1.4407    1.0000 </r>
       <r>    1.4627    1.0000 </r>
       <r>    1.4807    1.0000 </r>
       <r>    1.5382    1.0000 </r>
       <r>    1.5443    1.0000 </r>
       <r>    1.6496    1.0000 </r>
       <r>    1.6659    1.0000 </r>
       <r>    1.7182    1.0000 </r>
       <r>    1.8072    1.0000 </r>
       <r>    1.8087    1.0000 </r>
       <r>    1.8836    1.0000 </r>
       <r>    1.9219    1.0000 </r>
       <r>    1.9545    1.0000 </r>
       <r>    2.0030    1.0000 </r>
       <r>    2.0609    1.0000 </r>
       <r>    2.0684    1.0000 </r>
       <r>    2.1091    1.0000 </r>
       <r>    2.1217    1.0000 </r>
       <r>    2.1805    1.0000 </r>
       <r>    2.2313    1.0000 </r>
       <r>    2.3368    1.0000 </r>
       <r>    2.3500    1.0000 </r>
       <r>    2.3696    1.0000 </r>
       <r>    2.4436    1.0000 </r>
       <r>    2.4475    1.0000 </r>
       <r>    2.4890    1.0000 </r>
       <r>    2.5622    1.0000 </r>
       <r>    2.6087    1.0000 </r>
       <r>    2.6405    1.0000 </r>
       <r>    2.6415    1.0000 </r>
       <r>    2.7031    1.0000 </r>
       <r>    2.7477    1.0000 </r>
       <r>    2.7490    1.0000 </r>
       <r>    2.7968    1.0000 </r>
       <r>    2.8116    1.0000 </r>
       <r>    2.8255    1.0000 </r>
       <r>    2.8667    1.0000 </r>
       <r>    2.8945    1.0000 </r>
       <r>    2.9393    1.0000 </r>
       <r>    2.9676    1.0000 </r>
       <r>    3.0173    1.0000 </r>
       <r>    3.0324    1.0000 </r>
       <r>    3.1246    1.0000 </r>
       <r>    3.1466    1.0000 </r>
       <r>    3.1634    1.0000 </r>
       <r>    3.2002    1.0000 </r>
       <r>    3.3238    1.0000 </r>
       <r>    3.4189    1.0000 </r>
       <r>    3.4745    1.0000 </r>
       <r>    3.4880    1.0000 </r>
       <r>    3.4938    1.0000 </r>
       <r>    3.5199    1.0000 </r>
       <r>    3.5652    1.0000 </r>
       <r>    3.5722    1.0000 </r>
       <r>    3.7400    1.0000 </r>
       <r>    3.9053    1.0000 </r>
       <r>    5.6627    0.0000 </r>
       <r>    5.6693    0.0000 </r>
       <r>    5.6821    0.0000 </r>
       <r>    5.6840    0.0000 </r>
       <r>    5.7518    0.0000 </r>
       <r>    5.7570    0.0000 </r>
       <r>    5.7766    0.0000 </r>
       <r>    5.7813    0.0000 </r>
       <r>    7.2162    0.0000 </r>
       <r>    7.2364    0.0000 </r>
       <r>    7.3039    0.0000 </r>
       <r>    7.3343    0.0000 </r>
       <r>    7.3869    0.0000 </r>
       <r>    7.3895    0.0000 </r>
       <r>    7.4121    0.0000 </r>
       <r>    7.4245    0.0000 </r>
       <r>    7.4423    0.0000 </r>
       <r>    7.4773    0.0000 </r>
       <r>    7.5060    0.0000 </r>
       <r>    7.5061    0.0000 </r>
       <r>    7.8145    0.0000 </r>
       <r>    7.8424    0.0000 </r>
       <r>    7.8479    0.0000 </r>
       <r>    7.8631    0.0000 </r>
       <r>    7.8719    0.0000 </r>
       <r>    7.8953    0.0000 </r>
       <r>    7.9208    0.0000 </r>
       <r>    7.9355    0.0000 </r>
       <r>    8.0098    0.0000 </r>
       <r>    8.0247    0.0000 </r>
       <r>    8.1042    0.0000 </r>
       <r>    8.1122    0.0000 </r>
       <r>    8.2981    0.0000 </r>
       <r>    8.3456    0.0000 </r>
       <r>    8.3687    0.0000 </r>
       <r>    8.4538    0.0000 </r>
       <r>    8.6441    0.0000 </r>
       <r>    8.6946    0.0000 </r>
       <r>    8.7547    0.0000 </r>
       <r>    8.7633    0.0000 </r>
       <r>    8.7993    0.0000 </r>
       <r>    8.8191    0.0000 </r>
       <r>    8.9167    0.0000 </r>
       <r>    8.9194    0.0000 </r>
       <r>    9.1575    0.0000 </r>
       <r>    9.2082    0.0000 </r>
       <r>    9.4448    0.0000 </r>
       <r>    9.4753    0.0000 </r>
      </set>
      <set comment="kpoint 3">
       <r>  -40.2086    1.0000 </r>
       <r>  -40.0695    1.0000 </r>
       <r>  -40.0673    1.0000 </r>
       <r>  -40.0448    1.0000 </r>
       <r>  -40.0428    1.0000 </r>
       <r>  -39.9052    1.0000 </r>
       <r>  -39.8212    1.0000 </r>
       <r>  -39.4071    1.0000 </r>
       <r>  -18.9425    1.0000 </r>
       <r>  -18.9400    1.0000 </r>
       <r>  -18.8715    1.0000 </r>
       <r>  -18.8705    1.0000 </r>
       <r>  -18.8646    1.0000 </r>
       <r>  -18.8636    1.0000 </r>
       <r>  -18.7679    1.0000 </r>
       <r>  -18.7660    1.0000 </r>
       <r>  -18.7556    1.0000 </r>
       <r>  -18.7541    1.0000 </r>
       <r>  -18.7274    1.0000 </r>
       <r>  -18.7266    1.0000 </r>
       <r>  -18.7176    1.0000 </r>
       <r>  -18.7169    1.0000 </r>
       <r>  -18.7087    1.0000 </r>
       <r>  -18.7076    1.0000 </r>
       <r>  -18.6768    1.0000 </r>
       <r>  -18.6757    1.0000 </r>
       <r>  -18.6697    1.0000 </r>
       <r>  -18.6676    1.0000 </r>
       <r>  -18.6662    1.0000 </r>
       <r>  -18.6650    1.0000 </r>
       <r>  -18.6626    1.0000 </r>
       <r>  -18.6588    1.0000 </r>
       <r>  -18.6576    1.0000 </r>
       <r>  -18.6566    1.0000 </r>
       <r>  -18.6550    1.0000 </r>
       <r>  -18.6531    1.0000 </r>
       <r>  -18.6517    1.0000 </r>
       <r>  -18.6507    1.0000 </r>
       <r>  -18.6491    1.0000 </r>
       <r>  -18.6481    1.0000 </r>
       <r>  -18.6457    1.0000 </r>
       <r>  -18.6444    1.0000 </r>
       <r>  -18.6432    1.0000 </r>
       <r>  -18.6406    1.0000 </r>
       <r>  -18.6397    1.0000 </r>
       <r>  -18.6381    1.0000 </r>
       <r>  -18.6375    1.0000 </r>
       <r>  -18.6357    1.0000 </r>
       <r>  -18.5684    1.0000 </r>
       <r>  -18.5662    1.0000 </r>
       <r>  -18.5648    1.0000 </r>
       <r>  -18.5633    1.0000 </r>
       <r>  -18.5567    1.0000 </r>
       <r>  -18.5557    1.0000 </r>
       <r>  -18.5546    1.0000 </r>
       <r>  -18.5518    1.0000 </r>
       <r>  -18.5411    1.0000 </r>
       <r>  -18.5347    1.0000 </r>
       <r>  -18.5197    1.0000 </r>
       <r>  -18.5180    1.0000 </r>
       <r>  -18.5170    1.0000 </r>
       <r>  -18.5155    1.0000 </r>
       <r>  -18.5077    1.0000 </r>
       <r>  -18.5027    1.0000 </r>
       <r>  -18.5018    1.0000 </r>
       <r>  -18.5005    1.0000 </r>
       <r>  -18.4982    1.0000 </r>
       <r>  -18.4961    1.0000 </r>
       <r>  -18.4925    1.0000 </r>
       <r>  -18.4875    1.0000 </r>
       <r>  -18.4864    1.0000 </r>
       <r>  -18.4852    1.0000 </r>
       <r>  -18.4841    1.0000 </r>
       <r>  -18.4820    1.0000 </r>
       <r>  -18.4160    1.0000 </r>
       <r>  -18.4098    1.0000 </r>
       <r>  -18.4050    1.0000 </r>
       <r>  -18.4011    1.0000 </r>
       <r>  -18.3925    1.0000 </r>
       <r>  -18.3885    1.0000 </r>
       <r>  -18.3850    1.0000 </r>
       <r>  -18.3789    1.0000 </r>
       <r>  -18.3155    1.0000 </r>
       <r>  -18.3104    1.0000 </r>
       <r>  -18.2065    1.0000 </r>
       <r>  -18.2017    1.0000 </r>
       <r>  -18.1790    1.0000 </r>
       <r>  -18.1742    1.0000 </r>
       <r>  -13.5731    1.0000 </r>
       <r>  -13.4651    1.0000 </r>
       <r>  -12.9023    1.0000 </r>
       <r>  -12.8429    1.0000 </r>
       <r>  -12.7902    1.0000 </r>
       <r>  -12.7842    1.0000 </r>
       <r>  -12.7574    1.0000 </r>
       <r>  -12.7468    1.0000 </r>
       <r>  -12.7174    1.0000 </r>
       <r>  -12.6965    1.0000 </r>
       <r>  -12.6736    1.0000 </r>
       <r>  -12.6493    1.0000 </r>
       <r>  -12.5855    1.0000 </r>
       <r>  -12.5404    1.0000 </r>
       <r>  -11.9947    1.0000 </r>
       <r>  -11.9427    1.0000 </r>
       <r>   -9.3295    1.0000 </r>
       <r>   -9.0519    1.0000 </r>
       <r>   -8.5628    1.0000 </r>
       <r>   -8.5291    1.0000 </r>
       <r>   -8.5172    1.0000 </r>
       <r>   -8.4711    1.0000 </r>
       <r>   -8.3018    1.0000 </r>
       <r>   -8.2710    1.0000 </r>
       <r>   -8.2521    1.0000 </r>
       <r>   -8.2110    1.0000 </r>
       <r>   -8.0442    1.0000 </r>
       <r>   -8.0432    1.0000 </r>
       <r>   -8.0078    1.0000 </r>
       <r>   -8.0068    1.0000 </r>
       <r>   -7.3706    1.0000 </r>
       <r>   -7.3703    1.0000 </r>
       <r>   -6.3677    1.0000 </r>
       <r>   -6.3657    1.0000 </r>
       <r>   -6.3504    1.0000 </r>
       <r>   -6.3466    1.0000 </r>
       <r>   -5.5554    1.0000 </r>
       <r>   -5.4898    1.0000 </r>
       <r>   -5.4121    1.0000 </r>
       <r>   -5.3997    1.0000 </r>
       <r>   -5.3911    1.0000 </r>
       <r>   -5.2766    1.0000 </r>
       <r>   -5.1635    1.0000 </r>
       <r>   -5.1276    1.0000 </r>
       <r>   -5.0938    1.0000 </r>
       <r>   -5.0171    1.0000 </r>
       <r>   -3.8944    1.0000 </r>
       <r>   -3.5819    1.0000 </r>
       <r>   -1.3605    1.0000 </r>
       <r>   -1.2924    1.0000 </r>
       <r>   -1.1930    1.0000 </r>
       <r>   -1.1175    1.0000 </r>
       <r>   -0.4338    1.0000 </r>
       <r>   -0.4205    1.0000 </r>
       <r>   -0.4117    1.0000 </r>
       <r>   -0.3967    1.0000 </r>
       <r>   -0.3700    1.0000 </r>
       <r>   -0.3143    1.0000 </r>
       <r>   -0.2944    1.0000 </r>
       <r>   -0.2546    1.0000 </r>
       <r>   -0.1226    1.0000 </r>
       <r>   -0.0483    1.0000 </r>
       <r>    0.1460    1.0000 </r>
       <r>    0.2156    1.0000 </r>
       <r>    0.2364    1.0000 </r>
       <r>    0.2983    1.0000 </r>
       <r>    0.3885    1.0000 </r>
       <r>    0.4608    1.0000 </r>
       <r>    0.5178    1.0000 </r>
       <r>    0.6685    1.0000 </r>
       <r>    0.6750    1.0000 </r>
       <r>    0.7459    1.0000 </r>
       <r>    0.7531    1.0000 </r>
       <r>    0.7880    1.0000 </r>
       <r>    0.7942    1.0000 </r>
       <r>    0.8898    1.0000 </r>
       <r>    0.9344    1.0000 </r>
       <r>    1.1022    1.0000 </r>
       <r>    1.1452    1.0000 </r>
       <r>    1.1544    1.0000 </r>
       <r>    1.1892    1.0000 </r>
       <r>    1.2679    1.0000 </r>
       <r>    1.3217    1.0000 </r>
       <r>    1.3747    1.0000 </r>
       <r>    1.4093    1.0000 </r>
       <r>    1.5452    1.0000 </r>
       <r>    1.5637    1.0000 </r>
       <r>    1.6425    1.0000 </r>
       <r>    1.6462    1.0000 </r>
       <r>    1.6815    1.0000 </r>
       <r>    1.7282    1.0000 </r>
       <r>    1.7304    1.0000 </r>
       <r>    1.7612    1.0000 </r>
       <r>    1.7779    1.0000 </r>
       <r>    1.8582    1.0000 </r>
       <r>    1.8691    1.0000 </r>
       <r>    1.9329    1.0000 </r>
       <r>    1.9421    1.0000 </r>
       <r>    2.0051    1.0000 </r>
       <r>    2.0509    1.0000 </r>
       <r>    2.1362    1.0000 </r>
       <r>    2.2375    1.0000 </r>
       <r>    2.2725    1.0000 </r>
       <r>    2.3581    1.0000 </r>
       <r>    2.3932    1.0000 </r>
       <r>    2.3992    1.0000 </r>
       <r>    2.4472    1.0000 </r>
       <r>    2.5092    1.0000 </r>
       <r>    2.5279    1.0000 </r>
       <r>    2.5291    1.0000 </r>
       <r>    2.5660    1.0000 </r>
       <r>    2.5686    1.0000 </r>
       <r>    2.5808    1.0000 </r>
       <r>    2.5829    1.0000 </r>
       <r>    2.6280    1.0000 </r>
       <r>    2.6937    1.0000 </r>
       <r>    2.7393    1.0000 </r>
       <r>    2.7730    1.0000 </r>
       <r>    2.7837    1.0000 </r>
       <r>    2.8038    1.0000 </r>
       <r>    2.8234    1.0000 </r>
       <r>    2.8798    1.0000 </r>
       <r>    2.8852    1.0000 </r>
       <r>    2.9092    1.0000 </r>
       <r>    2.9200    1.0000 </r>
       <r>    2.9354    1.0000 </r>
       <r>    3.0226    1.0000 </r>
       <r>    3.0239    1.0000 </r>
       <r>    3.0602    1.0000 </r>
       <r>    3.1218    1.0000 </r>
       <r>    3.2271    1.0000 </r>
       <r>    3.3144    1.0000 </r>
       <r>    3.3304    1.0000 </r>
       <r>    3.3737    1.0000 </r>
       <r>    3.3968    1.0000 </r>
       <r>    3.4167    1.0000 </r>
       <r>    3.4349    1.0000 </r>
       <r>    3.5438    1.0000 </r>
       <r>    3.5458    1.0000 </r>
       <r>    3.7215    1.0000 </r>
       <r>    4.2196    1.0000 </r>
       <r>    4.2226    1.0000 </r>
       <r>    4.2684    1.0000 </r>
       <r>    4.2721    1.0000 </r>
       <r>    5.1139    0.0000 </r>
       <r>    5.1167    0.0000 </r>
       <r>    5.2123    0.0000 </r>
       <r>    5.2155    0.0000 </r>
       <r>    5.7409    0.0000 </r>
       <r>    5.7450    0.0000 </r>
       <r>    5.8112    0.0000 </r>
       <r>    5.8147    0.0000 </r>
       <r>    6.1417    0.0000 </r>
       <r>    6.1620    0.0000 </r>
       <r>    6.1755    0.0000 </r>
       <r>    6.1838    0.0000 </r>
       <r>    6.2323    0.0000 </r>
       <r>    6.2450    0.0000 </r>
       <r>    6.2805    0.0000 </r>
       <r>    6.2826    0.0000 </r>
       <r>    6.7865    0.0000 </r>
       <r>    6.8989    0.0000 </r>
       <r>    6.9437    0.0000 </r>
       <r>    7.0104    0.0000 </r>
       <r>    7.2637    0.0000 </r>
       <r>    7.3529    0.0000 </r>
       <r>    7.4091    0.0000 </r>
       <r>    7.4764    0.0000 </r>
       <r>    7.6290    0.0000 </r>
       <r>    7.8158    0.0000 </r>
       <r>    7.9190    0.0000 </r>
       <r>    7.9715    0.0000 </r>
       <r>    7.9812    0.0000 </r>
       <r>    8.3071    0.0000 </r>
       <r>    8.3452    0.0000 </r>
       <r>    8.4631    0.0000 </r>
       <r>    8.6956    0.0000 </r>
       <r>    8.7795    0.0000 </r>
       <r>    8.8670    0.0000 </r>
       <r>    8.9286    0.0000 </r>
       <r>    9.0195    0.0000 </r>
       <r>    9.0504    0.0000 </r>
       <r>    9.0547    0.0000 </r>
       <r>    9.0659    0.0000 </r>
       <r>    9.0987    0.0000 </r>
       <r>    9.1259    0.0000 </r>
       <r>    9.1480    0.0000 </r>
       <r>    9.2168    0.0000 </r>
       <r>    9.4548    0.0000 </r>
       <r>    9.4822    0.0000 </r>
       <r>    9.6525    0.0000 </r>
       <r>    9.7787    0.0000 </r>
      </set>
      <set comment="kpoint 4">
       <r>  -40.2086    1.0000 </r>
       <r>  -40.0695    1.0000 </r>
       <r>  -40.0672    1.0000 </r>
       <r>  -40.0448    1.0000 </r>
       <r>  -40.0428    1.0000 </r>
       <r>  -39.9052    1.0000 </r>
       <r>  -39.8211    1.0000 </r>
       <r>  -39.4071    1.0000 </r>
       <r>  -18.9425    1.0000 </r>
       <r>  -18.9400    1.0000 </r>
       <r>  -18.8714    1.0000 </r>
       <r>  -18.8704    1.0000 </r>
       <r>  -18.8646    1.0000 </r>
       <r>  -18.8635    1.0000 </r>
       <r>  -18.7679    1.0000 </r>
       <r>  -18.7660    1.0000 </r>
       <r>  -18.7556    1.0000 </r>
       <r>  -18.7541    1.0000 </r>
       <r>  -18.7275    1.0000 </r>
       <r>  -18.7267    1.0000 </r>
       <r>  -18.7175    1.0000 </r>
       <r>  -18.7169    1.0000 </r>
       <r>  -18.7086    1.0000 </r>
       <r>  -18.7076    1.0000 </r>
       <r>  -18.6767    1.0000 </r>
       <r>  -18.6755    1.0000 </r>
       <r>  -18.6696    1.0000 </r>
       <r>  -18.6676    1.0000 </r>
       <r>  -18.6663    1.0000 </r>
       <r>  -18.6651    1.0000 </r>
       <r>  -18.6629    1.0000 </r>
       <r>  -18.6591    1.0000 </r>
       <r>  -18.6566    1.0000 </r>
       <r>  -18.6558    1.0000 </r>
       <r>  -18.6554    1.0000 </r>
       <r>  -18.6538    1.0000 </r>
       <r>  -18.6525    1.0000 </r>
       <r>  -18.6511    1.0000 </r>
       <r>  -18.6491    1.0000 </r>
       <r>  -18.6478    1.0000 </r>
       <r>  -18.6458    1.0000 </r>
       <r>  -18.6445    1.0000 </r>
       <r>  -18.6431    1.0000 </r>
       <r>  -18.6413    1.0000 </r>
       <r>  -18.6390    1.0000 </r>
       <r>  -18.6382    1.0000 </r>
       <r>  -18.6370    1.0000 </r>
       <r>  -18.6357    1.0000 </r>
       <r>  -18.5683    1.0000 </r>
       <r>  -18.5662    1.0000 </r>
       <r>  -18.5648    1.0000 </r>
       <r>  -18.5632    1.0000 </r>
       <r>  -18.5567    1.0000 </r>
       <r>  -18.5557    1.0000 </r>
       <r>  -18.5546    1.0000 </r>
       <r>  -18.5518    1.0000 </r>
       <r>  -18.5411    1.0000 </r>
       <r>  -18.5347    1.0000 </r>
       <r>  -18.5197    1.0000 </r>
       <r>  -18.5180    1.0000 </r>
       <r>  -18.5170    1.0000 </r>
       <r>  -18.5155    1.0000 </r>
       <r>  -18.5077    1.0000 </r>
       <r>  -18.5027    1.0000 </r>
       <r>  -18.5018    1.0000 </r>
       <r>  -18.5005    1.0000 </r>
       <r>  -18.4982    1.0000 </r>
       <r>  -18.4961    1.0000 </r>
       <r>  -18.4925    1.0000 </r>
       <r>  -18.4875    1.0000 </r>
       <r>  -18.4864    1.0000 </r>
       <r>  -18.4852    1.0000 </r>
       <r>  -18.4840    1.0000 </r>
       <r>  -18.4820    1.0000 </r>
       <r>  -18.4160    1.0000 </r>
       <r>  -18.4098    1.0000 </r>
       <r>  -18.4050    1.0000 </r>
       <r>  -18.4011    1.0000 </r>
       <r>  -18.3925    1.0000 </r>
[...]
       <r>    8.8310    0.0000 </r>
       <r>    8.8606    0.0000 </r>
       <r>    8.8717    0.0000 </r>
       <r>    8.8827    0.0000 </r>
       <r>    8.9077    0.0000 </r>
       <r>    8.9265    0.0000 </r>
       <r>    8.9467    0.0000 </r>
      </set>
     </set>
    </set>
   </array>
  </eigenvalues>
  <separator name="orbital magnetization" >
   <v name="MAGDIPOLOUT">      0.00000000      0.00000000      0.00000000</v>
  </separator>
  <dos>
   <i name="efermi">      4.30511387 </i>
   <total>
    <array>
     <dimension dim="1">gridpoints</dimension>
     <dimension dim="2">spin</dimension>
     <field>energy</field>
     <field>total</field>
     <field>integrated</field>
     <set>
      <set comment="spin 1">
       <r>   -42.7080     0.0000     0.0000 </r>
       <r>   -42.5247     0.0000     0.0000 </r>
       <r>   -42.3414     0.0000     0.0000 </r>
       <r>   -42.1581     0.0000     0.0000 </r>
       <r>   -41.9748     0.0000     0.0000 </r>
       <r>   -41.7915     0.0000     0.0000 </r>
       <r>   -41.6082     0.0000     0.0000 </r>
       <r>   -41.4249     0.0000     0.0000 </r>
       <r>   -41.2417     0.0000     0.0000 </r>
       <r>   -41.0584     0.0000     0.0000 </r>
       <r>   -40.8751     0.0000     0.0000 </r>
       <r>   -40.6918     0.0000     0.0000 </r>
       <r>   -40.5085     0.0000     0.0000 </r>
       <r>   -40.3252     0.0000     0.0000 </r>
       <r>   -40.1419     0.0000     2.0000 </r>
       <r>   -39.9587     0.0000    10.0000 </r>
       <r>   -39.7754     0.0000    14.0000 </r>
       <r>   -39.5921     0.0000    14.0000 </r>
       <r>   -39.4088     0.0000    14.0000 </r>
       <r>   -39.2255     0.0000    16.0000 </r>
       <r>   -39.0422     0.0000    16.0000 </r>
       <r>   -38.8589     0.0000    16.0000 </r>
       <r>   -38.6756     0.0000    16.0000 </r>
       <r>   -38.4924     0.0000    16.0000 </r>
       <r>   -38.3091     0.0000    16.0000 </r>
       <r>   -38.1258     0.0000    16.0000 </r>
       <r>   -37.9425     0.0000    16.0000 </r>
       <r>   -37.7592     0.0000    16.0000 </r>
       <r>   -37.5759     0.0000    16.0000 </r>
       <r>   -37.3926     0.0000    16.0000 </r>
       <r>   -37.2093     0.0000    16.0000 </r>
       <r>   -37.0261     0.0000    16.0000 </r>
       <r>   -36.8428     0.0000    16.0000 </r>
       <r>   -36.6595     0.0000    16.0000 </r>
       <r>   -36.4762     0.0000    16.0000 </r>
       <r>   -36.2929     0.0000    16.0000 </r>
       <r>   -36.1096     0.0000    16.0000 </r>
       <r>   -35.9263     0.0000    16.0000 </r>
       <r>   -35.7431     0.0000    16.0000 </r>
       <r>   -35.5598     0.0000    16.0000 </r>
       <r>   -35.3765     0.0000    16.0000 </r>
       <r>   -35.1932     0.0000    16.0000 </r>
       <r>   -35.0099     0.0000    16.0000 </r>
       <r>   -34.8266     0.0000    16.0000 </r>
       <r>   -34.6433     0.0000    16.0000 </r>
       <r>   -34.4600     0.0000    16.0000 </r>
       <r>   -34.2768     0.0000    16.0000 </r>
       <r>   -34.0935     0.0000    16.0000 </r>
       <r>   -33.9102     0.0000    16.0000 </r>
       <r>   -33.7269     0.0000    16.0000 </r>
       <r>   -33.5436     0.0000    16.0000 </r>
       <r>   -33.3603     0.0000    16.0000 </r>
       <r>   -33.1770     0.0000    16.0000 </r>
       <r>   -32.9938     0.0000    16.0000 </r>
       <r>   -32.8105     0.0000    16.0000 </r>
       <r>   -32.6272     0.0000    16.0000 </r>
       <r>   -32.4439     0.0000    16.0000 </r>
       <r>   -32.2606     0.0000    16.0000 </r>
       <r>   -32.0773     0.0000    16.0000 </r>
       <r>   -31.8940     0.0000    16.0000 </r>
       <r>   -31.7107     0.0000    16.0000 </r>
       <r>   -31.5275     0.0000    16.0000 </r>
       <r>   -31.3442     0.0000    16.0000 </r>
       <r>   -31.1609     0.0000    16.0000 </r>
       <r>   -30.9776     0.0000    16.0000 </r>
       <r>   -30.7943     0.0000    16.0000 </r>
       <r>   -30.6110     0.0000    16.0000 </r>
       <r>   -30.4277     0.0000    16.0000 </r>
       <r>   -30.2444     0.0000    16.0000 </r>
       <r>   -30.0612     0.0000    16.0000 </r>
       <r>   -29.8779     0.0000    16.0000 </r>
       <r>   -29.6946     0.0000    16.0000 </r>
       <r>   -29.5113     0.0000    16.0000 </r>
       <r>   -29.3280     0.0000    16.0000 </r>
       <r>   -29.1447     0.0000    16.0000 </r>
       <r>   -28.9614     0.0000    16.0000 </r>
       <r>   -28.7782     0.0000    16.0000 </r>
       <r>   -28.5949     0.0000    16.0000 </r>
       <r>   -28.4116     0.0000    16.0000 </r>
       <r>   -28.2283     0.0000    16.0000 </r>
       <r>   -28.0450     0.0000    16.0000 </r>
       <r>   -27.8617     0.0000    16.0000 </r>
       <r>   -27.6784     0.0000    16.0000 </r>
       <r>   -27.4951     0.0000    16.0000 </r>
       <r>   -27.3119     0.0000    16.0000 </r>
       <r>   -27.1286     0.0000    16.0000 </r>
       <r>   -26.9453     0.0000    16.0000 </r>
       <r>   -26.7620     0.0000    16.0000 </r>
       <r>   -26.5787     0.0000    16.0000 </r>
       <r>   -26.3954     0.0000    16.0000 </r>
       <r>   -26.2121     0.0000    16.0000 </r>
       <r>   -26.0289     0.0000    16.0000 </r>
       <r>   -25.8456     0.0000    16.0000 </r>
       <r>   -25.6623     0.0000    16.0000 </r>
       <r>   -25.4790     0.0000    16.0000 </r>
       <r>   -25.2957     0.0000    16.0000 </r>
       <r>   -25.1124     0.0000    16.0000 </r>
       <r>   -24.9291     0.0000    16.0000 </r>
       <r>   -24.7458     0.0000    16.0000 </r>
       <r>   -24.5626     0.0000    16.0000 </r>
       <r>   -24.3793     0.0000    16.0000 </r>
       <r>   -24.1960     0.0000    16.0000 </r>
       <r>   -24.0127     0.0000    16.0000 </r>
       <r>   -23.8294     0.0000    16.0000 </r>
       <r>   -23.6461     0.0000    16.0000 </r>
       <r>   -23.4628     0.0000    16.0000 </r>
       <r>   -23.2796     0.0000    16.0000 </r>
       <r>   -23.0963     0.0000    16.0000 </r>
       <r>   -22.9130     0.0000    16.0000 </r>
       <r>   -22.7297     0.0000    16.0000 </r>
       <r>   -22.5464     0.0000    16.0000 </r>
       <r>   -22.3631     0.0000    16.0000 </r>
       <r>   -22.1798     0.0000    16.0000 </r>
       <r>   -21.9965     0.0000    16.0000 </r>
       <r>   -21.8133     0.0000    16.0000 </r>
       <r>   -21.6300     0.0000    16.0000 </r>
       <r>   -21.4467     0.0000    16.0000 </r>
       <r>   -21.2634     0.0000    16.0000 </r>
       <r>   -21.0801     0.0000    16.0000 </r>
       <r>   -20.8968     0.0000    16.0000 </r>
       <r>   -20.7135     0.0000    16.0000 </r>
       <r>   -20.5302     0.0000    16.0000 </r>
       <r>   -20.3470     0.0000    16.0000 </r>
       <r>   -20.1637     0.0000    16.0000 </r>
       <r>   -19.9804     0.0000    16.0000 </r>
       <r>   -19.7971     0.0000    16.0000 </r>
       <r>   -19.6138     0.0000    16.0000 </r>
       <r>   -19.4305     0.0000    16.0000 </r>
       <r>   -19.2472     0.0000    16.0000 </r>
       <r>   -19.0640     0.0000    16.0000 </r>
       <r>   -18.8807     0.0000    20.0000 </r>
       <r>   -18.6974     0.0000    48.0000 </r>
       <r>   -18.5141     0.0000   124.0000 </r>
       <r>   -18.3308     0.0000   164.0000 </r>
       <r>   -18.1475     0.0000   176.0000 </r>
       <r>   -17.9642     0.0000   176.0000 </r>
       <r>   -17.7809     0.0000   176.0000 </r>
       <r>   -17.5977     0.0000   176.0000 </r>
       <r>   -17.4144     0.0000   176.0000 </r>
       <r>   -17.2311     0.0000   176.0000 </r>
       <r>   -17.0478     0.0000   176.0000 </r>
       <r>   -16.8645     0.0000   176.0000 </r>
       <r>   -16.6812     0.0000   176.0000 </r>
       <r>   -16.4979     0.0000   176.0000 </r>
       <r>   -16.3147     0.0000   176.0000 </r>
       <r>   -16.1314     0.0000   176.0000 </r>
       <r>   -15.9481     0.0000   176.0000 </r>
       <r>   -15.7648     0.0000   176.0000 </r>
       <r>   -15.5815     0.0000   176.0000 </r>
       <r>   -15.3982     0.0000   176.0000 </r>
       <r>   -15.2149     0.0000   176.0000 </r>
       <r>   -15.0316     0.0000   176.0000 </r>
       <r>   -14.8484     0.0000   176.0000 </r>
       <r>   -14.6651     0.0000   176.0000 </r>
       <r>   -14.4818     0.0000   176.0000 </r>
       <r>   -14.2985     0.0000   176.0000 </r>
       <r>   -14.1152     0.0000   176.0000 </r>
       <r>   -13.9319     0.0000   176.0000 </r>
       <r>   -13.7486     0.0000   176.0000 </r>
       <r>   -13.5653     0.0000   178.0000 </r>
       <r>   -13.3821     0.0000   180.0000 </r>
       <r>   -13.1988     0.0000   180.0000 </r>
       <r>   -13.0155     0.0000   180.0000 </r>
       <r>   -12.8322    14.9138   184.0577 </r>
       <r>   -12.6489    18.6798   199.9960 </r>
       <r>   -12.4656     0.0000   204.0000 </r>
       <r>   -12.2823     0.0000   204.0000 </r>
       <r>   -12.0991     0.0000   204.0000 </r>
       <r>   -11.9158     0.0000   208.0000 </r>
       <r>   -11.7325     0.0000   208.0000 </r>
       <r>   -11.5492     0.0000   208.0000 </r>
       <r>   -11.3659     0.0000   208.0000 </r>
       <r>   -11.1826     0.0000   208.0000 </r>
       <r>   -10.9993     0.0000   208.0000 </r>
       <r>   -10.8160     0.0000   208.0000 </r>
       <r>   -10.6328     0.0000   208.0000 </r>
       <r>   -10.4495     0.0000   208.0000 </r>
       <r>   -10.2662     0.0000   208.0000 </r>
       <r>   -10.0829     0.0000   208.0000 </r>
       <r>    -9.8996     0.0000   208.0000 </r>
       <r>    -9.7163     0.0000   208.0000 </r>
       <r>    -9.5330     0.0000   208.0000 </r>
       <r>    -9.3498     0.0000   208.0000 </r>
       <r>    -9.1665    10.7406   209.0372 </r>
       <r>    -8.9832     6.7878   211.9206 </r>
       <r>    -8.7999    21.5396   213.5689 </r>
       <r>    -8.6166    12.4198   216.1529 </r>
       <r>    -8.4333    32.4614   219.6263 </r>
       <r>    -8.2500     2.1110   224.0159 </r>
       <r>    -8.0667    40.9300   227.5188 </r>
       <r>    -7.8835    18.7990   231.9963 </r>
       <r>    -7.7002    23.5018   235.3825 </r>
       <r>    -7.5169    16.6868   238.7664 </r>
       <r>    -7.3336     0.0000   240.0000 </r>
       <r>    -7.1503     0.0000   240.0000 </r>
       <r>    -6.9670     0.0000   240.0000 </r>
       <r>    -6.7837     0.0000   240.0000 </r>
       <r>    -6.6005     0.0000   240.0000 </r>
       <r>    -6.4172     0.0000   240.0000 </r>
       <r>    -6.2339    13.2781   240.8754 </r>
       <r>    -6.0506    29.4419   244.9282 </r>
       <r>    -5.8673    16.1138   248.5430 </r>
       <r>    -5.6840    23.1956   253.1898 </r>
       <r>    -5.5007    20.5840   257.1477 </r>
       <r>    -5.3174    18.4185   260.9781 </r>
       <r>    -5.1342     7.6306   263.5133 </r>
       <r>    -4.9509     5.4207   264.3672 </r>
       <r>    -4.7676     7.7847   265.6979 </r>
       <r>    -4.5843    10.3681   267.3348 </r>
       <r>    -4.4010     6.1114   268.9375 </r>
       <r>    -4.2177     7.3873   270.1570 </r>
       <r>    -4.0344     4.5955   271.2832 </r>
       <r>    -3.8511     1.5286   271.8330 </r>
       <r>    -3.6679     0.2735   271.9922 </r>
       <r>    -3.4846     0.0000   272.0000 </r>
       <r>    -3.3013     0.0000   272.0000 </r>
       <r>    -3.1180     0.0000   272.0000 </r>
       <r>    -2.9347     0.0000   272.0000 </r>
       <r>    -2.7514     0.0000   272.0000 </r>
       <r>    -2.5681     0.0000   272.0000 </r>
       <r>    -2.3849     0.0000   272.0000 </r>
       <r>    -2.2016     0.0000   272.0000 </r>
       <r>    -2.0183     0.0000   272.0000 </r>
       <r>    -1.8350     0.0000   272.0000 </r>
       <r>    -1.6517     0.0000   272.0000 </r>
       <r>    -1.4684     0.0000   272.0000 </r>
       <r>    -1.2851     4.0650   272.1991 </r>
       <r>    -1.1018     9.7033   273.6082 </r>
       <r>    -0.9186    13.7943   275.7706 </r>
       <r>    -0.7353     9.4047   277.9610 </r>
       <r>    -0.5520     5.1523   279.2953 </r>
       <r>    -0.3687    18.8976   281.4649 </r>
       <r>    -0.1854    26.0226   285.7658 </r>
       <r>    -0.0021    39.8680   292.4483 </r>
       <r>     0.1812    30.1751   298.7327 </r>
       <r>     0.3644    38.1429   305.5098 </r>
       <r>     0.5477    40.8548   312.4784 </r>
       <r>     0.7310    25.7774   319.4697 </r>
       <r>     0.9143    44.3604   325.3989 </r>
       <r>     1.0976    54.3940   333.9332 </r>
       <r>     1.2809    58.4574   343.1371 </r>
       <r>     1.4642    49.8516   351.6086 </r>
       <r>     1.6475    57.7294   361.4977 </r>
       <r>     1.8307    45.9169   370.9907 </r>
       <r>     2.0140    39.6800   377.5904 </r>
       <r>     2.1973    46.3259   385.1554 </r>
       <r>     2.3806    56.1599   393.7462 </r>
       <r>     2.5639    62.3656   405.0397 </r>
       <r>     2.7472    75.2851   415.7796 </r>
       <r>     2.9305    67.9017   428.4861 </r>
       <r>     3.1137    49.7074   439.6417 </r>
       <r>     3.2970    27.8274   446.3958 </r>
       <r>     3.4803    42.4470   453.2981 </r>
       <r>     3.6636    14.7378   457.7975 </r>
       <r>     3.8469    19.3612   460.7175 </r>
       <r>     4.0302     8.5611   463.1333 </r>
       <r>     4.2135     0.9172   463.9824 </r>
       <r>     4.3968     0.0000   464.0000 </r>
       <r>     4.5800     0.0000   464.0000 </r>
       <r>     4.7633     0.0000   464.0000 </r>
       <r>     4.9466     0.0000   464.0000 </r>
       <r>     5.1299     0.5310   464.0158 </r>
       <r>     5.3132     3.8934   464.3861 </r>
       <r>     5.4965     7.8252   465.4599 </r>
       <r>     5.6798     9.2588   467.1270 </r>
       <r>     5.8631    21.5083   470.8175 </r>
       <r>     6.0463    12.7297   473.5661 </r>
       <r>     6.2296    11.5230   475.7386 </r>
       <r>     6.4129    13.0789   477.9768 </r>
       <r>     6.5962    14.8404   480.5359 </r>
       <r>     6.7795    16.6012   483.4164 </r>
       <r>     6.9628    19.0063   486.6459 </r>
       <r>     7.1461    27.0069   490.7706 </r>
       <r>     7.3293    41.1541   496.8734 </r>
       <r>     7.5126    26.8951   504.0875 </r>
       <r>     7.6959    36.0059   509.1734 </r>
       <r>     7.8792    49.4460   517.1385 </r>
       <r>     8.0625    30.0692   525.1782 </r>
       <r>     8.2458    19.3546   529.3662 </r>
       <r>     8.4291    20.6561   532.9411 </r>
       <r>     8.6124    25.2162   537.1697 </r>
       <r>     8.7956    46.2921   542.1769 </r>
       <r>     8.9789    32.9464   550.2477 </r>
       <r>     9.1622    16.4201   554.5536 </r>
       <r>     9.3455    11.8797   557.1087 </r>
       <r>     9.5288    10.2367   559.1541 </r>
       <r>     9.7121     1.0988   559.9756 </r>
       <r>     9.8954     0.0000   560.0000 </r>
       <r>    10.0786     0.0000   560.0000 </r>
       <r>    10.2619     0.0000   560.0000 </r>
       <r>    10.4452     0.0000   560.0000 </r>
       <r>    10.6285     0.0000   560.0000 </r>
       <r>    10.8118     0.0000   560.0000 </r>
       <r>    10.9951     0.0000   560.0000 </r>
       <r>    11.1784     0.0000   560.0000 </r>
       <r>    11.3617     0.0000   560.0000 </r>
       <r>    11.5449     0.0000   560.0000 </r>
       <r>    11.7282     0.0000   560.0000 </r>
       <r>    11.9115     0.0000   560.0000 </r>
       <r>    12.0948     0.0000   560.0000 </r>
       <r>    12.2781     0.0000   560.0000 </r>
      </set>
     </set>
    </array>
   </total>
  </dos>
 </calculation>
 <structure name="finalpos" >
  <crystal>
   <varray name="basis" >
    <v>      11.17850000       0.00000000       0.00000000 </v>
    <v>       0.00000000       9.57460000       0.00000000 </v>
    <v>       0.00000000       0.00000000      11.18240000 </v>
   </varray>
   <i name="volume">   1196.84853820 </i>
   <varray name="rec_basis" >
    <v>       0.08945744       0.00000000       0.00000000 </v>
    <v>       0.00000000       0.10444301       0.00000000 </v>
    <v>       0.00000000       0.00000000       0.08942624 </v>
   </varray>
  </crystal>
  <varray name="positions" >
   <v>       0.37539000       0.00017000       0.43687000 </v>
   <v>       0.12539000       0.99984000       0.93687000 </v>
   <v>       0.37539000       0.00017000       0.93687000 </v>
   <v>       0.12461000       0.99984000       0.68687000 </v>
   <v>       0.62539000       0.99984000       0.93687000 </v>
   <v>       0.87539000       0.00017000       0.93687000 </v>
   <v>       0.62461000       0.99984000       0.68687000 </v>
   <v>       0.87461000       0.00017000       0.68687000 </v>
   <v>       0.12461000       0.99984000       0.18687000 </v>
   <v>       0.87539000       0.00017000       0.43687000 </v>
   <v>       0.62461000       0.99984000       0.18687000 </v>
   <v>       0.37461000       0.00017000       0.68687000 </v>
   <v>       0.00013000       0.29519000       0.06281000 </v>
   <v>       0.25013000       0.70481000       0.06281000 </v>
   <v>       0.24987000       0.29519000       0.31282000 </v>
   <v>       0.49987000       0.70481000       0.31282000 </v>
   <v>       0.50013000       0.29519000       0.06281000 </v>
   <v>       0.75013000       0.70481000       0.06281000 </v>
   <v>       0.74987000       0.29519000       0.31282000 </v>
   <v>       0.99987000       0.70481000       0.31282000 </v>
   <v>       0.00013000       0.29519000       0.56281000 </v>
   <v>       0.25013000       0.70481000       0.56281000 </v>
   <v>       0.24987000       0.29519000       0.81282000 </v>
   <v>       0.49987000       0.70481000       0.81282000 </v>
   <v>       0.50013000       0.29519000       0.56281000 </v>
   <v>       0.75013000       0.70481000       0.56281000 </v>
   <v>       0.74987000       0.29519000       0.81282000 </v>
   <v>       0.99987000       0.70481000       0.81282000 </v>
   <v>       0.25005000       0.32677000       0.06286000 </v>
   <v>       0.00005000       0.67323000       0.06286000 </v>
   <v>       0.49995000       0.32677000       0.31286000 </v>
   <v>       0.24995000       0.67323000       0.31286000 </v>
   <v>       0.75005000       0.32677000       0.06286000 </v>
   <v>       0.50005000       0.67323000       0.06286000 </v>
   <v>       0.99995000       0.32677000       0.31286000 </v>
   <v>       0.74995000       0.67323000       0.31286000 </v>
   <v>       0.25005000       0.32677000       0.56286000 </v>
   <v>       0.00005000       0.67323000       0.56286000 </v>
   <v>       0.49995000       0.32677000       0.81286000 </v>
   <v>       0.24995000       0.67323000       0.81286000 </v>
   <v>       0.75005000       0.32677000       0.56286000 </v>
   <v>       0.50005000       0.67323000       0.56286000 </v>
   <v>       0.99995000       0.32677000       0.81286000 </v>
   <v>       0.74995000       0.67323000       0.81286000 </v>
   <v>       0.49987000       0.07798000       0.06246000 </v>
   <v>       0.24987000       0.92202000       0.06246000 </v>
   <v>       0.25013000       0.07798000       0.31246000 </v>
   <v>       0.00013000       0.92202000       0.31246000 </v>
   <v>       0.99987000       0.07798000       0.06246000 </v>
   <v>       0.74987000       0.92202000       0.06246000 </v>
   <v>       0.75013000       0.07798000       0.31246000 </v>
   <v>       0.50013000       0.92202000       0.31246000 </v>
   <v>       0.49987000       0.07798000       0.56246000 </v>
   <v>       0.24987000       0.92202000       0.56246000 </v>
   <v>       0.25013000       0.07798000       0.81246000 </v>
   <v>       0.00013000       0.92202000       0.81246000 </v>
   <v>       0.99987000       0.07798000       0.56246000 </v>
   <v>       0.74987000       0.92202000       0.56246000 </v>
   <v>       0.75013000       0.07798000       0.81246000 </v>
   <v>       0.50013000       0.92202000       0.81246000 </v>
  </varray>
 </structure>
</modeling>
