<?xml version="1.0" encoding="ISO-8859-1"?>
<modeling>
 <generator>
  <i name="program" type="string">vasp </i>
  <i name="version" type="string">5.4.4.18Apr17-6-g9f103f2a35  </i>
  <i name="subversion" type="string">(build Jul 31 2017 11:33:29) complex            parallel </i>
  <i name="platform" type="string">LinuxIFC </i>
  <i name="date" type="string">2021 09 23 </i>
  <i name="time" type="string">09:25:08 </i>
 </generator>
 <incar>
  <i type="string" name="SYSTEM"> La2O2S</i>
  <i type="string" name="PREC">normal</i>
  <i type="int" name="NELMIN">     4</i>
  <i type="int" name="IBRION">     2</i>
  <i type="int" name="NFREE">    10</i>
  <i name="EDIFF">      0.00000100</i>
  <i name="EDIFFG">     -0.01000000</i>
  <i type="int" name="NSW">   200</i>
  <i type="int" name="ISIF">     3</i>
  <i name="ENCUT">    600.00000000</i>
  <i name="ENAUG">    900.00000000</i>
  <i type="int" name="ISMEAR">    -5</i>
  <i type="logical" name="LWAVE"> F  </i>
  <i type="logical" name="LCHARG"> F  </i>
  <v type="int" name="KPOINT_BSE">    -1     0     0     0</v>
 </incar>
 <structure name="primitive_cell" >
  <crystal>
   <varray name="basis" >
    <v>      11.17850000       0.00000000       0.00000000 </v>
    <v>       0.00000000       9.57460000       0.00000000 </v>
    <v>       0.00000000       0.00000000      11.18240000 </v>
   </varray>
   <i name="volume">   1196.84853820 </i>
   <varray name="rec_basis" >
    <v>       0.08945744       0.00000000       0.00000000 </v>
    <v>       0.00000000       0.10444301       0.00000000 </v>
    <v>       0.00000000       0.00000000       0.08942624 </v>
   </varray>
  </crystal>
  <varray name="positions" >
   <v>       0.37539000       0.00017000       0.43687000 </v>
   <v>      -0.49987000      -0.07798000       0.31246000 </v>
   <v>       0.25013000       0.07798000       0.31246000 </v>
   <v>       0.49987000       0.07798000      -0.43754000 </v>
   <v>       0.24987000      -0.07798000      -0.43754000 </v>
   <v>      -0.37461000      -0.00016000       0.43687000 </v>
   <v>       0.37461000       0.00017000       0.18687000 </v>
   <v>       0.37461000       0.00017000      -0.31313000 </v>
   <v>       0.49987000      -0.29519000       0.31282000 </v>
   <v>       0.24987000       0.29519000       0.31282000 </v>
   <v>      -0.49987000       0.29519000      -0.43719000 </v>
   <v>       0.25013000      -0.29519000      -0.43719000 </v>
   <v>       0.49995000       0.32677000       0.31286000 </v>
   <v>       0.24995000      -0.32677000       0.31286000 </v>
   <v>      -0.49995000      -0.32677000      -0.43714000 </v>
   <v>       0.25005000       0.32677000      -0.43714000 </v>
   <v>      -0.37539000      -0.00016000      -0.31313000 </v>
   <v>       0.12461000      -0.00016000      -0.31313000 </v>
   <v>       0.49987000       0.07798000       0.06246000 </v>
   <v>      -0.24987000       0.07798000       0.31246000 </v>
   <v>      -0.25013000      -0.07798000      -0.43754000 </v>
   <v>       0.24987000      -0.07798000       0.06246000 </v>
   <v>       0.00013000      -0.07798000       0.31246000 </v>
   <v>      -0.49987000      -0.07798000      -0.18754000 </v>
   <v>      -0.00013000       0.07798000      -0.43754000 </v>
   <v>       0.25013000       0.07798000      -0.18754000 </v>
   <v>      -0.49987000       0.29519000       0.06281000 </v>
   <v>      -0.25013000       0.29519000       0.31282000 </v>
   <v>       0.25013000      -0.29519000       0.06281000 </v>
   <v>      -0.24987000      -0.29519000      -0.43719000 </v>
   <v>      -0.00013000      -0.29519000       0.31282000 </v>
   <v>       0.00013000       0.29519000      -0.43719000 </v>
   <v>       0.49987000      -0.29519000      -0.18718000 </v>
   <v>       0.24987000       0.29519000      -0.18718000 </v>
   <v>      -0.49995000      -0.32677000       0.06286000 </v>
   <v>       0.25005000       0.32677000       0.06286000 </v>
   <v>      -0.25005000      -0.32677000       0.31286000 </v>
   <v>      -0.24995000       0.32677000      -0.43714000 </v>
   <v>      -0.00005000       0.32677000       0.31286000 </v>
   <v>       0.00005000      -0.32677000      -0.43714000 </v>
   <v>       0.49995000       0.32677000      -0.18714000 </v>
   <v>       0.24995000      -0.32677000      -0.18714000 </v>
   <v>      -0.12461000       0.00017000       0.43687000 </v>
   <v>       0.37539000       0.00017000      -0.06313000 </v>
   <v>      -0.25013000      -0.07798000       0.06246000 </v>
   <v>      -0.00013000       0.07798000       0.06246000 </v>
   <v>      -0.24987000       0.07798000      -0.18754000 </v>
   <v>       0.00013000      -0.07798000      -0.18754000 </v>
   <v>      -0.12539000       0.00017000       0.18687000 </v>
   <v>      -0.12539000       0.00017000      -0.31313000 </v>
   <v>       0.12539000      -0.00016000      -0.06313000 </v>
   <v>      -0.37461000      -0.00016000      -0.06313000 </v>
   <v>      -0.24987000      -0.29519000       0.06281000 </v>
   <v>       0.00013000       0.29519000       0.06281000 </v>
   <v>      -0.25013000       0.29519000      -0.18718000 </v>
   <v>      -0.00013000      -0.29519000      -0.18718000 </v>
   <v>      -0.24995000       0.32677000       0.06286000 </v>
   <v>       0.00005000      -0.32677000       0.06286000 </v>
   <v>      -0.25005000      -0.32677000      -0.18714000 </v>
   <v>      -0.00005000       0.32677000      -0.18714000 </v>
   <v>      -0.12461000       0.00017000      -0.06313000 </v>
  </varray>
 </structure>
 <varray name="primitive_index" >
  <v type="int" >        1 </v>
  <v type="int" >       53 </v>
  <v type="int" >       48 </v>
  <v type="int" >       54 </v>
  <v type="int" >       55 </v>
  <v type="int" >        3 </v>
  <v type="int" >        2 </v>
  <v type="int" >        8 </v>
  <v type="int" >       17 </v>
  <v type="int" >       16 </v>
  <v type="int" >       26 </v>
  <v type="int" >       23 </v>
  <v type="int" >       32 </v>
  <v type="int" >       33 </v>
  <v type="int" >       43 </v>
  <v type="int" >       38 </v>
  <v type="int" >       10 </v>
  <v type="int" >       11 </v>
  <v type="int" >       46 </v>
  <v type="int" >       52 </v>
  <v type="int" >       59 </v>
  <v type="int" >       47 </v>
  <v type="int" >       49 </v>
  <v type="int" >       61 </v>
  <v type="int" >       58 </v>
  <v type="int" >       56 </v>
  <v type="int" >       18 </v>
  <v type="int" >       20 </v>
  <v type="int" >       15 </v>
  <v type="int" >       27 </v>
  <v type="int" >       21 </v>
  <v type="int" >       22 </v>
  <v type="int" >       25 </v>
  <v type="int" >       24 </v>
  <v type="int" >       35 </v>
  <v type="int" >       30 </v>
  <v type="int" >       37 </v>
  <v type="int" >       42 </v>
  <v type="int" >       36 </v>
  <v type="int" >       39 </v>
  <v type="int" >       40 </v>
  <v type="int" >       41 </v>
  <v type="int" >        4 </v>
  <v type="int" >        7 </v>
  <v type="int" >       51 </v>
  <v type="int" >       50 </v>
  <v type="int" >       60 </v>
  <v type="int" >       57 </v>
  <v type="int" >        5 </v>
  <v type="int" >       13 </v>
  <v type="int" >        6 </v>
  <v type="int" >        9 </v>
  <v type="int" >       19 </v>
  <v type="int" >       14 </v>
  <v type="int" >       28 </v>
  <v type="int" >       29 </v>
  <v type="int" >       34 </v>
  <v type="int" >       31 </v>
  <v type="int" >       45 </v>
  <v type="int" >       44 </v>
  <v type="int" >       12 </v>
 </varray>
 <kpoints>
  <generation param="Gamma">
   <v type="int" name="divisions">       2        2        2 </v>
   <v name="usershift">      0.00000000       0.00000000       0.00000000 </v>
   <v name="genvec1">      0.50000000       0.00000000       0.00000000 </v>
   <v name="genvec2">      0.00000000       0.50000000       0.00000000 </v>
   <v name="genvec3">      0.00000000       0.00000000       0.50000000 </v>
   <v name="shift">      0.00000000       0.00000000       0.00000000 </v>
  </generation>
  <varray name="kpointlist" >
   <v>       0.00000000       0.00000000       0.00000000 </v>
   <v>       0.50000000       0.00000000       0.00000000 </v>
   <v>       0.00000000       0.50000000       0.00000000 </v>
   <v>       0.50000000       0.50000000       0.00000000 </v>
   <v>       0.00000000       0.00000000       0.50000000 </v>
   <v>       0.50000000       0.00000000       0.50000000 </v>
   <v>       0.00000000       0.50000000       0.50000000 </v>
   <v>       0.50000000       0.50000000       0.50000000 </v>
  </varray>
  <varray name="weights" >
   <v>       0.12500000 </v>
   <v>       0.12500000 </v>
   <v>       0.12500000 </v>
   <v>       0.12500000 </v>
   <v>       0.12500000 </v>
   <v>       0.12500000 </v>
   <v>       0.12500000 </v>
   <v>       0.12500000 </v>
  </varray>
  <varray name="tetrahedronlist"  type="int" >
   <v type="int" >        2        1        2        4        5 </v>
   <v type="int" >        2        1        3        4        5 </v>
   <v type="int" >        2        3        4        5        7 </v>
   <v type="int" >        2        2        4        5        6 </v>
   <v type="int" >        2        4        5        6        8 </v>
   <v type="int" >        2        4        5        7        8 </v>
   <v type="int" >        2        1        2        3        6 </v>
   <v type="int" >        2        2        3        4        6 </v>
   <v type="int" >        2        3        4        6        8 </v>
   <v type="int" >        2        1        3        5        6 </v>
   <v type="int" >        2        3        5        6        7 </v>
   <v type="int" >        2        3        6        7        8 </v>
   <v type="int" >        2        2        3        4        7 </v>
   <v type="int" >        2        1        2        3        7 </v>
   <v type="int" >        2        1        2        5        7 </v>
   <v type="int" >        2        2        4        7        8 </v>
   <v type="int" >        2        2        6        7        8 </v>
   <v type="int" >        2        2        5        6        7 </v>
   <v type="int" >        2        1        3        4        8 </v>
   <v type="int" >        2        1        2        4        8 </v>
   <v type="int" >        2        1        2        6        8 </v>
   <v type="int" >        2        1        3        7        8 </v>
   <v type="int" >        2        1        5        7        8 </v>
   <v type="int" >        2        1        5        6        8 </v>
  </varray>
  <i name="volumeweight">      0.02083333 </i>
 </kpoints>
 <parameters>
  <separator name="general" >
   <i type="string" name="SYSTEM">La2O2S</i>
   <i type="logical" name="LCOMPAT"> F  </i>
  </separator>
  <separator name="electronic" >
   <i type="string" name="PREC">normal</i>
   <i name="ENMAX">    600.00000000</i>
   <i name="ENAUG">    900.00000000</i>
   <i name="EDIFF">      0.00000100</i>
   <i type="int" name="IALGO">    38</i>
   <i type="int" name="IWAVPR">    11</i>
   <i type="int" name="NBANDS">   280</i>
   <i name="NELECT">    468.00000000</i>
   <i type="int" name="TURBO">     0</i>
   <i type="int" name="IRESTART">     0</i>
   <i type="int" name="NREBOOT">     0</i>
   <i type="int" name="NMIN">     0</i>
   <i name="EREF">      0.00000000</i>
   <separator name="electronic smearing" >
    <i type="int" name="ISMEAR">    -5</i>
    <i name="SIGMA">      0.20000000</i>
    <i name="KSPACING">      0.50000000</i>
    <i type="logical" name="KGAMMA"> T  </i>
   </separator>
   <separator name="electronic projectors" >
    <i type="logical" name="LREAL"> F  </i>
    <v name="ROPT">      0.00000000      0.00000000      0.00000000      0.00000000      0.00000000</v>
    <i type="int" name="LMAXPAW">  -100</i>
    <i type="int" name="LMAXMIX">     2</i>
    <i type="logical" name="NLSPLINE"> F  </i>
   </separator>
   <separator name="electronic startup" >
    <i type="int" name="ISTART">     0</i>
    <i type="int" name="ICHARG">     2</i>
    <i type="int" name="INIWAV">     1</i>
   </separator>
   <separator name="electronic spin" >
    <i type="int" name="ISPIN">     1</i>
    <i type="logical" name="LNONCOLLINEAR"> F  </i>
    <v name="MAGMOM">      1.00000000      1.00000000      1.00000000      1.00000000      1.00000000      1.00000000      1.00000000      1.00000000      1.00000000      1.00000000      1.00000000      1.00000000      1.00000000      1.00000000      1.00000000      1.00000000      1.00000000      1.00000000      1.00000000      1.00000000
      1.00000000      1.00000000      1.00000000      1.00000000      1.00000000      1.00000000      1.00000000      1.00000000      1.00000000      1.00000000      1.00000000      1.00000000      1.00000000      1.00000000      1.00000000      1.00000000      1.00000000      1.00000000      1.00000000      1.00000000
      1.00000000      1.00000000      1.00000000      1.00000000      1.00000000      1.00000000      1.00000000      1.00000000      1.00000000      1.00000000      1.00000000      1.00000000      1.00000000      1.00000000      1.00000000      1.00000000      1.00000000      1.00000000      1.00000000      1.00000000
      1.00000000</v>
    <i name="NUPDOWN">     -1.00000000</i>
    <i type="logical" name="LSORBIT"> F  </i>
    <v name="SAXIS">      0.00000000      0.00000000      1.00000000</v>
    <i type="logical" name="LSPIRAL"> F  </i>
    <v name="QSPIRAL">      0.00000000      0.00000000      0.00000000</v>
    <i type="logical" name="LZEROZ"> F  </i>
   </separator>
   <separator name="electronic exchange-correlation" >
    <i type="logical" name="LASPH"> F  </i>
    <i type="logical" name="LMETAGGA"> F  </i>
   </separator>
   <separator name="electronic convergence" >
    <i type="int" name="NELM">    60</i>
    <i type="int" name="NELMDL">    -5</i>
    <i type="int" name="NELMIN">     4</i>
    <i name="ENINI">    600.00000000</i>
    <separator name="electronic convergence detail" >
     <i type="logical" name="LDIAG"> T  </i>
     <i type="logical" name="LSUBROT"> F  </i>
     <i name="WEIMIN">      0.00100000</i>
     <i name="EBREAK">      0.00000000</i>
     <i name="DEPER">      0.30000000</i>
     <i type="int" name="NRMM">     4</i>
     <i name="TIME">      0.40000000</i>
    </separator>
   </separator>
   <separator name="electronic mixer" >
    <i name="AMIX">      0.40000000</i>
    <i name="BMIX">      1.00000000</i>
    <i name="AMIN">      0.10000000</i>
    <i name="AMIX_MAG">      1.60000000</i>
    <i name="BMIX_MAG">      1.00000000</i>
    <separator name="electronic mixer details" >
     <i type="int" name="IMIX">     4</i>
     <i type="logical" name="MIXFIRST"> F  </i>
     <i type="int" name="MAXMIX">   -45</i>
     <i name="WC">    100.00000000</i>
     <i type="int" name="INIMIX">     1</i>
     <i type="int" name="MIXPRE">     1</i>
     <i type="int" name="MREMOVE">     5</i>
    </separator>
   </separator>
   <separator name="electronic dipolcorrection" >
    <i type="logical" name="LDIPOL"> F  </i>
    <i type="logical" name="LMONO"> F  </i>
    <i type="int" name="IDIPOL">     0</i>
    <i name="EPSILON">      1.00000000</i>
    <v name="DIPOL">   -100.00000000   -100.00000000   -100.00000000</v>
    <i name="EFIELD">      0.00000000</i>
   </separator>
  </separator>
  <separator name="grids" >
   <i type="int" name="NGX">    70</i>
   <i type="int" name="NGY">    60</i>
   <i type="int" name="NGZ">    70</i>
   <i type="int" name="NGXF">   140</i>
   <i type="int" name="NGYF">   120</i>
   <i type="int" name="NGZF">   140</i>
   <i type="logical" name="ADDGRID"> F  </i>
  </separator>
  <separator name="ionic" >
   <i type="int" name="NSW">   200</i>
   <i type="int" name="IBRION">     2</i>
   <i type="int" name="MDALGO">     0</i>
   <i type="int" name="ISIF">     3</i>
   <i name="PSTRESS">      0.00000000</i>
   <i name="EDIFFG">     -0.01000000</i>
   <i type="int" name="NFREE">    10</i>
   <i name="POTIM">      0.50000000</i>
   <i name="SMASS">     -3.00000000</i>
   <i name="SCALEE">      1.00000000</i>
  </separator>
  <separator name="ionic md" >
   <i name="TEBEG">      0.00010000</i>
   <i name="TEEND">      0.00010000</i>
   <i type="int" name="NBLOCK">     1</i>
   <i type="int" name="KBLOCK">   200</i>
   <i type="int" name="NPACO">   256</i>
   <i name="APACO">     16.00000000</i>
  </separator>
  <separator name="symmetry" >
   <i type="int" name="ISYM">     2</i>
   <i name="SYMPREC">      0.00001000</i>
  </separator>
  <separator name="dos" >
   <i type="int" name="LORBIT">     0</i>
   <v name="RWIGS">     -1.00000000     -1.00000000     -1.00000000     -1.00000000     -1.00000000</v>
   <i type="int" name="NEDOS">   301</i>
   <i name="EMIN">     10.00000000</i>
   <i name="EMAX">    -10.00000000</i>
   <i name="EFERMI">      0.00000000</i>
  </separator>
  <separator name="writing" >
   <i type="int" name="NWRITE">     2</i>
   <i type="logical" name="LWAVE"> F  </i>
   <i type="logical" name="LDOWNSAMPLE"> F  </i>
   <i type="logical" name="LCHARG"> F  </i>
   <i type="logical" name="LPARD"> F  </i>
   <i type="logical" name="LVTOT"> F  </i>
   <i type="logical" name="LVHAR"> F  </i>
   <i type="logical" name="LELF"> F  </i>
   <i type="logical" name="LOPTICS"> F  </i>
   <v name="STM">      0.00000000      0.00000000      0.00000000      0.00000000      0.00000000      0.00000000      0.00000000</v>
  </separator>
  <separator name="performance" >
   <i type="int" name="NPAR">    28</i>
   <i type="int" name="NSIM">     4</i>
   <i type="int" name="NBLK">    -1</i>
   <i type="logical" name="LPLANE"> T  </i>
   <i type="logical" name="LSCALAPACK"> T  </i>
   <i type="logical" name="LSCAAWARE"> F  </i>
   <i type="logical" name="LSCALU"> F  </i>
   <i type="logical" name="LASYNC"> F  </i>
   <i type="logical" name="LORBITALREAL"> F  </i>
  </separator>
  <separator name="miscellaneous" >
   <i type="int" name="IDIOT">     3</i>
   <i type="int" name="ISPECIAL">     0</i>
   <i type="logical" name="LMUSIC"> F  </i>
   <v name="POMASS">      7.01000000     24.30500000    208.98000000     32.06600000     16.00000000</v>
   <v name="DARWINR">      0.00000000      0.00000000      0.00000000      0.00000000      0.00000000</v>
   <v name="DARWINV">      1.00000000      1.00000000      1.00000000      1.00000000      1.00000000</v>
   <i type="logical" name="LCORR"> T  </i>
  </separator>
  <i type="logical" name="GGA_COMPAT"> T  </i>
  <i type="logical" name="LBERRY"> F  </i>
  <i type="int" name="ICORELEVEL">     0</i>
  <i type="logical" name="LDAU"> F  </i>
  <i type="int" name="I_CONSTRAINED_M">     0</i>
  <separator name="electronic exchange-correlation" >
   <i type="string" name="GGA">--</i>
   <i type="int" name="VOSKOWN">     0</i>
   <i type="logical" name="LHFCALC"> F  </i>
   <i type="string" name="PRECFOCK"></i>
   <i type="logical" name="LSYMGRAD"> F  </i>
   <i type="logical" name="LHFONE"> F  </i>
   <i type="logical" name="LRHFCALC"> F  </i>
   <i type="logical" name="LTHOMAS"> F  </i>
   <i type="logical" name="LMODELHF"> F  </i>
   <i name="ENCUT4O">     -1.00000000</i>
   <i type="int" name="EXXOEP">     0</i>
   <i type="int" name="FOURORBIT">     0</i>
   <i name="AEXX">      0.00000000</i>
   <i name="HFALPHA">      0.00000000</i>
   <i name="MCALPHA">      0.00000000</i>
   <i name="ALDAX">      1.00000000</i>
   <i name="AGGAX">      1.00000000</i>
   <i name="ALDAC">      1.00000000</i>
   <i name="AGGAC">      1.00000000</i>
   <i type="int" name="NKREDX">     1</i>
   <i type="int" name="NKREDY">     1</i>
   <i type="int" name="NKREDZ">     1</i>
   <i type="logical" name="SHIFTRED"> F  </i>
   <i type="logical" name="ODDONLY"> F  </i>
   <i type="logical" name="EVENONLY"> F  </i>
   <i type="int" name="LMAXFOCK">     0</i>
   <i type="int" name="NMAXFOCKAE">     0</i>
   <i type="logical" name="LFOCKAEDFT"> F  </i>
   <i name="HFSCREEN">      0.00000000</i>
   <i name="HFSCREENC">      0.00000000</i>
   <i type="int" name="NBANDSGWLOW">     0</i>
  </separator>
  <separator name="vdW DFT" >
   <i type="logical" name="LUSE_VDW"> F  </i>
   <i name="Zab_VDW">     -0.84910000</i>
   <i name="PARAM1">      0.12340000</i>
   <i name="PARAM2">      1.00000000</i>
   <i name="PARAM3">      0.00000000</i>
  </separator>
  <separator name="model GW" >
   <i type="int" name="MODEL_GW">     0</i>
   <i name="MODEL_EPS0">     11.77228070</i>
   <i name="MODEL_ALPHA">      1.00000000</i>
  </separator>
  <separator name="linear response parameters" >
   <i type="logical" name="LEPSILON"> F  </i>
   <i type="logical" name="LRPA"> F  </i>
   <i type="logical" name="LNABLA"> F  </i>
   <i type="logical" name="LVEL"> F  </i>
   <i type="int" name="KINTER">     0</i>
   <i name="CSHIFT">      0.10000000</i>
   <i name="OMEGAMAX">     -1.00000000</i>
   <i name="DEG_THRESHOLD">      0.00200000</i>
   <i name="RTIME">     -0.10000000</i>
   <i name="WPLASMAI">      0.00000000</i>
   <v name="DFIELD">      0.00000000      0.00000000      0.00000000</v>
   <v name="WPLASMA">      0.00000000      0.00000000      0.00000000      0.00000000      0.00000000      0.00000000      0.00000000      0.00000000      0.00000000</v>
  </separator>
  <separator name="orbital magnetization" >
   <i type="logical" name="NUCIND"> F  </i>
   <v name="MAGPOS">      0.00000000      0.00000000      0.00000000</v>
   <i type="logical" name="LNICSALL"> T  </i>
   <i type="logical" name="ORBITALMAG"> F  </i>
   <i type="logical" name="LMAGBLOCH"> F  </i>
   <i type="logical" name="LCHIMAG"> F  </i>
   <i type="logical" name="LGAUGE"> T  </i>
   <i type="int" name="MAGATOM">     0</i>
   <v name="MAGDIPOL">      0.00000000      0.00000000      0.00000000</v>
   <v name="AVECCONST">      0.00000000      0.00000000      0.00000000</v>
  </separator>
  <separator name="response functions" >
   <i type="logical" name="LADDER"> F  </i>
   <i type="logical" name="LRPAFORCE"> F  </i>
   <i type="logical" name="LFXC"> F  </i>
   <i type="logical" name="LHARTREE"> T  </i>
   <i type="int" name="IBSE">     0</i>
   <v type="int" name="KPOINT">    -1     0     0     0</v>
   <i type="logical" name="LTCTE"> F  </i>
   <i type="logical" name="LTETE"> F  </i>
   <i type="logical" name="LTRIPLET"> F  </i>
   <i type="logical" name="LFXCEPS"> F  </i>
   <i type="logical" name="LFXHEG"> F  </i>
   <i type="int" name="NATURALO">     2</i>
   <i type="logical" name="L2ORDER"> F  </i>
   <i type="logical" name="LMP2LT"> F  </i>
   <i type="logical" name="LUSEW"> F  </i>
   <i name="ENCUTGW">     -2.00000000</i>
   <i name="ENCUTGWSOFT">     -2.00000000</i>
   <i name="ENCUTLF">     -1.00000000</i>
   <i type="int" name="LMAXMP2">    -1</i>
   <i name="SCISSOR">      0.00000000</i>
   <i type="int" name="NOMEGA">     0</i>
   <i type="int" name="NOMEGAR">     0</i>
   <i type="int" name="NBANDSGW">    -1</i>
   <i type="int" name="NBANDSO">    -1</i>
   <i type="int" name="NBANDSV">    -1</i>
   <i type="int" name="NELM">     1</i>
   <i type="int" name="NELMHF">     1</i>
   <i type="int" name="DIM">     3</i>
   <i type="int" name="ANTIRES">     0</i>
   <i name="OMEGAMAX">    -30.00000000</i>
   <i name="OMEGAMIN">    -30.00000000</i>
   <i name="OMEGATL">   -200.00000000</i>
   <i type="int" name="OMEGAGRID">   140</i>
   <i name="CSHIFT">     -0.10000000</i>
   <i type="logical" name="SELFENERGY"> F  </i>
   <i type="logical" name="LSPECTRAL"> F  </i>
   <i type="logical" name="LSPECTRALGW"> F  </i>
   <i type="logical" name="LSINGLES"> F  </i>
   <i type="logical" name="LFERMIGW"> F  </i>
   <i type="logical" name="ODDONLYGW"> F  </i>
   <i type="logical" name="EVENONLYGW"> F  </i>
   <i type="int" name="NKREDLFX">     1</i>
   <i type="int" name="NKREDLFY">     1</i>
   <i type="int" name="NKREDLFZ">     1</i>
   <i type="int" name="MAXMEM">  2800</i>
   <i type="int" name="TELESCOPE">     0</i>
   <i type="int" name="TAUPAR">     1</i>
   <i type="int" name="OMEGAPAR">    -1</i>
   <i name="LAMBDA">      1.00000000</i>
  </separator>
  <separator name="External order field" >
   <i name="OFIELD_KAPPA">      0.00000000</i>
   <v name="OFIELD_K">      0.00000000      0.00000000      0.00000000</v>
   <i name="OFIELD_Q6_NEAR">      0.00000000</i>
   <i name="OFIELD_Q6_FAR">      0.00000000</i>
   <i name="OFIELD_A">      0.00000000</i>
  </separator>
 </parameters>
 <atominfo>
  <atoms>      61 </atoms>
  <types>       5 </types>
  <array name="atoms" >
   <dimension dim="1">ion</dimension>
   <field type="string">element</field>
   <field type="int">atomtype</field>
   <set>
    <rc><c>Li</c><c>   1</c></rc>
    <rc><c>Li</c><c>   1</c></rc>
    <rc><c>Li</c><c>   1</c></rc>
    <rc><c>Li</c><c>   1</c></rc>
    <rc><c>Li</c><c>   1</c></rc>
    <rc><c>Li</c><c>   1</c></rc>
    <rc><c>Li</c><c>   1</c></rc>
    <rc><c>Li</c><c>   1</c></rc>
    <rc><c>Li</c><c>   1</c></rc>
    <rc><c>Li</c><c>   1</c></rc>
    <rc><c>Mg</c><c>   2</c></rc>
    <rc><c>Mg</c><c>   2</c></rc>
    <rc><c>Mg</c><c>   2</c></rc>
    <rc><c>Bi</c><c>   3</c></rc>
    <rc><c>Bi</c><c>   3</c></rc>
    <rc><c>Bi</c><c>   3</c></rc>
    <rc><c>Bi</c><c>   3</c></rc>
    <rc><c>Bi</c><c>   3</c></rc>
    <rc><c>Bi</c><c>   3</c></rc>
    <rc><c>Bi</c><c>   3</c></rc>
    <rc><c>Bi</c><c>   3</c></rc>
    <rc><c>Bi</c><c>   3</c></rc>
    <rc><c>Bi</c><c>   3</c></rc>
    <rc><c>Bi</c><c>   3</c></rc>
    <rc><c>Bi</c><c>   3</c></rc>
    <rc><c>Bi</c><c>   3</c></rc>
    <rc><c>Bi</c><c>   3</c></rc>
    <rc><c>Bi</c><c>   3</c></rc>
    <rc><c>Bi</c><c>   3</c></rc>
    <rc><c>S </c><c>   4</c></rc>
    <rc><c>S </c><c>   4</c></rc>
    <rc><c>S </c><c>   4</c></rc>
    <rc><c>S </c><c>   4</c></rc>
    <rc><c>S </c><c>   4</c></rc>
    <rc><c>S </c><c>   4</c></rc>
    <rc><c>S </c><c>   4</c></rc>
    <rc><c>S </c><c>   4</c></rc>
    <rc><c>S </c><c>   4</c></rc>
    <rc><c>S </c><c>   4</c></rc>
    <rc><c>S </c><c>   4</c></rc>
    <rc><c>S </c><c>   4</c></rc>
    <rc><c>S </c><c>   4</c></rc>
    <rc><c>S </c><c>   4</c></rc>
    <rc><c>S </c><c>   4</c></rc>
    <rc><c>S </c><c>   4</c></rc>
    <rc><c>O </c><c>   5</c></rc>
    <rc><c>O </c><c>   5</c></rc>
    <rc><c>O </c><c>   5</c></rc>
    <rc><c>O </c><c>   5</c></rc>
    <rc><c>O </c><c>   5</c></rc>
    <rc><c>O </c><c>   5</c></rc>
    <rc><c>O </c><c>   5</c></rc>
    <rc><c>O </c><c>   5</c></rc>
    <rc><c>O </c><c>   5</c></rc>
    <rc><c>O </c><c>   5</c></rc>
    <rc><c>O </c><c>   5</c></rc>
    <rc><c>O </c><c>   5</c></rc>
    <rc><c>O </c><c>   5</c></rc>
    <rc><c>O </c><c>   5</c></rc>
    <rc><c>O </c><c>   5</c></rc>
    <rc><c>O </c><c>   5</c></rc>
   </set>
  </array>
  <array name="atomtypes" >
   <dimension dim="1">type</dimension>
   <field type="int">atomspertype</field>
   <field type="string">element</field>
   <field>mass</field>
   <field>valence</field>
   <field type="string">pseudopotential</field>
   <set>
    <rc><c>  10</c><c>Li</c><c>      7.01000000</c><c>      3.00000000</c><c>  PAW_PBE Li_sv 10Sep2004               </c></rc>
    <rc><c>   3</c><c>Mg</c><c>     24.30500000</c><c>      2.00000000</c><c>  PAW_PBE Mg 13Apr2007                  </c></rc>
    <rc><c>  16</c><c>Bi</c><c>    208.98000000</c><c>     15.00000000</c><c>  PAW_PBE Bi_d 06Sep2000                </c></rc>
    <rc><c>  16</c><c>S </c><c>     32.06600000</c><c>      6.00000000</c><c>  PAW_PBE S 06Sep2000                   </c></rc>
    <rc><c>  16</c><c>O </c><c>     16.00000000</c><c>      6.00000000</c><c>  PAW_PBE O 08Apr2002                   </c></rc>
   </set>
  </array>
 </atominfo>
 <structure name="initialpos" >
  <crystal>
   <varray name="basis" >
    <v>      11.17850000       0.00000000       0.00000000 </v>
    <v>       0.00000000       9.57460000       0.00000000 </v>
    <v>       0.00000000       0.00000000      11.18240000 </v>
   </varray>
   <i name="volume">   1196.84853820 </i>
   <varray name="rec_basis" >
    <v>       0.08945744       0.00000000       0.00000000 </v>
    <v>       0.00000000       0.10444301       0.00000000 </v>
    <v>       0.00000000       0.00000000       0.08942624 </v>
   </varray>
  </crystal>
  <varray name="positions" >
   <v>       0.37539000       0.00017000       0.43687000 </v>
   <v>       0.37461000       0.00017000       0.18687000 </v>
   <v>       0.62539000       0.99984000       0.43687000 </v>
   <v>       0.87539000       0.00017000       0.43687000 </v>
   <v>       0.87461000       0.00017000       0.18687000 </v>
   <v>       0.12539000       0.99984000       0.93687000 </v>
   <v>       0.37539000       0.00017000       0.93687000 </v>
   <v>       0.37461000       0.00017000       0.68687000 </v>
   <v>       0.62539000       0.99984000       0.93687000 </v>
   <v>       0.62461000       0.99984000       0.68687000 </v>
   <v>       0.12461000       0.99984000       0.68687000 </v>
   <v>       0.87539000       0.00017000       0.93687000 </v>
   <v>       0.87461000       0.00017000       0.68687000 </v>
   <v>       0.00013000       0.29519000       0.06281000 </v>
   <v>       0.25013000       0.70481000       0.06281000 </v>
   <v>       0.24987000       0.29519000       0.31282000 </v>
   <v>       0.49987000       0.70481000       0.31282000 </v>
   <v>       0.50013000       0.29519000       0.06281000 </v>
   <v>       0.75013000       0.70481000       0.06281000 </v>
   <v>       0.74987000       0.29519000       0.31282000 </v>
   <v>       0.99987000       0.70481000       0.31282000 </v>
   <v>       0.00013000       0.29519000       0.56281000 </v>
   <v>       0.25013000       0.70481000       0.56281000 </v>
   <v>       0.24987000       0.29519000       0.81282000 </v>
   <v>       0.49987000       0.70481000       0.81282000 </v>
   <v>       0.50013000       0.29519000       0.56281000 </v>
   <v>       0.75013000       0.70481000       0.56281000 </v>
   <v>       0.74987000       0.29519000       0.81282000 </v>
   <v>       0.99987000       0.70481000       0.81282000 </v>
   <v>       0.25005000       0.32677000       0.06286000 </v>
   <v>       0.00005000       0.67323000       0.06286000 </v>
   <v>       0.49995000       0.32677000       0.31286000 </v>
   <v>       0.24995000       0.67323000       0.31286000 </v>
   <v>       0.75005000       0.32677000       0.06286000 </v>
   <v>       0.50005000       0.67323000       0.06286000 </v>
   <v>       0.99995000       0.32677000       0.31286000 </v>
   <v>       0.74995000       0.67323000       0.31286000 </v>
   <v>       0.25005000       0.32677000       0.56286000 </v>
   <v>       0.00005000       0.67323000       0.56286000 </v>
   <v>       0.49995000       0.32677000       0.81286000 </v>
   <v>       0.24995000       0.67323000       0.81286000 </v>
   <v>       0.75005000       0.32677000       0.56286000 </v>
   <v>       0.50005000       0.67323000       0.56286000 </v>
   <v>       0.99995000       0.32677000       0.81286000 </v>
   <v>       0.74995000       0.67323000       0.81286000 </v>
   <v>       0.49987000       0.07798000       0.06246000 </v>
   <v>       0.24987000       0.92202000       0.06246000 </v>
   <v>       0.25013000       0.07798000       0.31246000 </v>
   <v>       0.00013000       0.92202000       0.31246000 </v>
   <v>       0.99987000       0.07798000       0.06246000 </v>
   <v>       0.74987000       0.92202000       0.06246000 </v>
   <v>       0.75013000       0.07798000       0.31246000 </v>
   <v>       0.50013000       0.92202000       0.31246000 </v>
   <v>       0.49987000       0.07798000       0.56246000 </v>
   <v>       0.24987000       0.92202000       0.56246000 </v>
   <v>       0.25013000       0.07798000       0.81246000 </v>
   <v>       0.00013000       0.92202000       0.81246000 </v>
   <v>       0.99987000       0.07798000       0.56246000 </v>
   <v>       0.74987000       0.92202000       0.56246000 </v>
   <v>       0.75013000       0.07798000       0.81246000 </v>
   <v>       0.50013000       0.92202000       0.81246000 </v>
  </varray>
 </structure>
 <calculation>
  <scstep>
   <time name="dav">   59.83   60.46</time>
   <time name="total">   59.95   60.87</time>
   <energy>
    <i name="alphaZ">   1073.51873187 </i>
    <i name="ewald"> -30881.37585654 </i>
    <i name="hartreedc"> -12706.97189674 </i>
    <i name="XCdc">   1395.06877048 </i>
    <i name="pawpsdc">  36823.70205594 </i>
    <i name="pawaedc"> -36326.52930246 </i>
    <i name="eentropy">      0.00000000 </i>
    <i name="bandstr">   1807.78331424 </i>
    <i name="atom">  44791.06186932 </i>
    <i name="e_fr_energy">   5976.25768611 </i>
    <i name="e_wo_entrp">   5976.25768611 </i>
    <i name="e_0_energy">   5976.25768611 </i>
   </energy>
  </scstep>
  <scstep>
   <time name="dav">   60.64   61.14</time>
   <time name="total">   60.65   61.15</time>
   <energy>
    <i name="e_fr_energy">    805.72671185 </i>
    <i name="e_wo_entrp">    805.72671185 </i>
    <i name="e_0_energy">    805.72671185 </i>
   </energy>
  </scstep>
  <scstep>
   <time name="dav">   69.17   70.08</time>
   <time name="total">   69.17   70.08</time>
   <energy>
    <i name="e_fr_energy">   -240.32925621 </i>
    <i name="e_wo_entrp">   -240.32925621 </i>
    <i name="e_0_energy">   -240.32925621 </i>
   </energy>
  </scstep>
  <scstep>
   <time name="dav">   72.50   73.30</time>
   <time name="total">   72.50   73.30</time>
   <energy>
    <i name="e_fr_energy">   -345.11482404 </i>
    <i name="e_wo_entrp">   -345.11482404 </i>
    <i name="e_0_energy">   -345.11482404 </i>
   </energy>
  </scstep>
  <scstep>
   <time name="dav">   96.26   97.15</time>
   <time name="total">   96.99   97.91</time>
   <energy>
    <i name="e_fr_energy">   -353.71276269 </i>
    <i name="e_wo_entrp">   -353.71276269 </i>
    <i name="e_0_energy">   -353.71276269 </i>
   </energy>
  </scstep>
  <scstep>
   <time name="dav">   85.90   86.31</time>
   <time name="total">   86.70   87.17</time>
   <energy>
    <i name="e_fr_energy">   -294.23769876 </i>
    <i name="e_wo_entrp">   -294.23769876 </i>
    <i name="e_0_energy">   -294.23769876 </i>
   </energy>
  </scstep>
  <scstep>
   <time name="dav">   65.08   65.47</time>
   <time name="total">   65.89   66.29</time>
   <energy>
    <i name="e_fr_energy">   -296.57023260 </i>
    <i name="e_wo_entrp">   -296.57023260 </i>
    <i name="e_0_energy">   -296.57023260 </i>
   </energy>
  </scstep>
  <scstep>
   <time name="dav">   77.28   77.74</time>
   <time name="total">   78.08   78.56</time>
   <energy>
    <i name="e_fr_energy">   -295.15586417 </i>
    <i name="e_wo_entrp">   -295.15586417 </i>
    <i name="e_0_energy">   -295.15586417 </i>
   </energy>
  </scstep>
  <scstep>
   <time name="dav">   72.53   73.03</time>
   <time name="total">   73.33   73.84</time>
   <energy>
    <i name="e_fr_energy">   -294.41360996 </i>
    <i name="e_wo_entrp">   -294.41360996 </i>
    <i name="e_0_energy">   -294.41360996 </i>
   </energy>
  </scstep>
  <scstep>
   <time name="dav">   74.72   75.71</time>
   <time name="total">   75.52   76.51</time>
   <energy>
    <i name="e_fr_energy">   -294.47255107 </i>
    <i name="e_wo_entrp">   -294.47255107 </i>
    <i name="e_0_energy">   -294.47255107 </i>
   </energy>
  </scstep>
  <scstep>
   <time name="dav">   81.74   82.25</time>
   <time name="total">   82.54   83.06</time>
   <energy>
    <i name="e_fr_energy">   -294.47339899 </i>
    <i name="e_wo_entrp">   -294.47339899 </i>
    <i name="e_0_energy">   -294.47339899 </i>
   </energy>
  </scstep>
  <scstep>
   <time name="dav">   82.46   83.06</time>
   <time name="total">   83.27   83.88</time>
   <energy>
    <i name="e_fr_energy">   -294.47763108 </i>
    <i name="e_wo_entrp">   -294.47763108 </i>
    <i name="e_0_energy">   -294.47763108 </i>
   </energy>
  </scstep>
  <scstep>
   <time name="dav">   76.19   76.49</time>
   <time name="total">   76.99   77.30</time>
   <energy>
    <i name="e_fr_energy">   -294.47860627 </i>
    <i name="e_wo_entrp">   -294.47860627 </i>
    <i name="e_0_energy">   -294.47860627 </i>
   </energy>
  </scstep>
  <scstep>
   <time name="dav">   73.28   73.58</time>
   <time name="total">   74.08   74.38</time>
   <energy>
    <i name="e_fr_energy">   -294.47846958 </i>
    <i name="e_wo_entrp">   -294.47846958 </i>
    <i name="e_0_energy">   -294.47846958 </i>
   </energy>
  </scstep>
  <scstep>
   <time name="dav">   71.63   72.10</time>
   <time name="total">   72.51   72.98</time>
   <energy>
    <i name="e_fr_energy">   -294.47861147 </i>
    <i name="e_wo_entrp">   -294.47861147 </i>
    <i name="e_0_energy">   -294.47861147 </i>
   </energy>
  </scstep>
  <scstep>
   <time name="dav">   85.57   85.90</time>
   <time name="total">   86.37   86.70</time>
   <energy>
    <i name="e_fr_energy">   -294.47861517 </i>
    <i name="e_wo_entrp">   -294.47861517 </i>
    <i name="e_0_energy">   -294.47861517 </i>
   </energy>
  </scstep>
  <scstep>
   <time name="dav">   70.73   71.26</time>
   <time name="total">   71.53   72.07</time>
   <energy>
    <i name="e_fr_energy">   -294.47862173 </i>
    <i name="e_wo_entrp">   -294.47862173 </i>
    <i name="e_0_energy">   -294.47862173 </i>
   </energy>
  </scstep>
  <scstep>
   <time name="dav">   70.27   70.99</time>
   <time name="total">   71.07   71.80</time>
   <energy>
    <i name="e_fr_energy">   -294.47862307 </i>
    <i name="e_wo_entrp">   -294.47862307 </i>
    <i name="e_0_energy">   -294.47862307 </i>
   </energy>
  </scstep>
  <scstep>
   <time name="dav">   62.15   62.55</time>
   <time name="total">   62.96   63.36</time>
   <energy>
    <i name="e_fr_energy">   -294.47862475 </i>
    <i name="e_wo_entrp">   -294.47862475 </i>
    <i name="e_0_energy">   -294.47862475 </i>
   </energy>
  </scstep>
  <scstep>
   <time name="dav">   52.48   53.28</time>
   <time name="total">   52.55   53.35</time>
   <energy>
    <i name="alphaZ">   1073.51873187 </i>
    <i name="ewald"> -30881.37585654 </i>
    <i name="hartreedc"> -12935.75500846 </i>
    <i name="XCdc">   1418.14734186 </i>
    <i name="pawpsdc">  43843.06720604 </i>
    <i name="pawaedc"> -43321.24078519 </i>
    <i name="eentropy">      0.00000000 </i>
    <i name="bandstr">  -4281.90212348 </i>
    <i name="atom">  44791.06186932 </i>
    <i name="e_fr_energy">   -294.47862459 </i>
    <i name="e_wo_entrp">   -294.47862459 </i>
    <i name="e_0_energy">   -294.47862459 </i>
   </energy>
  </scstep>
  <structure>
   <crystal>
    <varray name="basis" >
     <v>      11.17850000       0.00000000       0.00000000 </v>
     <v>       0.00000000       9.57460000       0.00000000 </v>
     <v>       0.00000000       0.00000000      11.18240000 </v>
    </varray>
    <i name="volume">   1196.84853820 </i>
    <varray name="rec_basis" >
     <v>       0.08945744       0.00000000       0.00000000 </v>
     <v>       0.00000000       0.10444301       0.00000000 </v>
     <v>       0.00000000       0.00000000       0.08942624 </v>
    </varray>
   </crystal>
   <varray name="positions" >
    <v>       0.37539000       0.00017000       0.43687000 </v>
    <v>       0.37461000       0.00017000       0.18687000 </v>
    <v>       0.62539000       0.99984000       0.43687000 </v>
    <v>       0.87539000       0.00017000       0.43687000 </v>
    <v>       0.87461000       0.00017000       0.18687000 </v>
    <v>       0.12539000       0.99984000       0.93687000 </v>
    <v>       0.37539000       0.00017000       0.93687000 </v>
    <v>       0.37461000       0.00017000       0.68687000 </v>
    <v>       0.62539000       0.99984000       0.93687000 </v>
    <v>       0.62461000       0.99984000       0.68687000 </v>
    <v>       0.12461000       0.99984000       0.68687000 </v>
    <v>       0.87539000       0.00017000       0.93687000 </v>
    <v>       0.87461000       0.00017000       0.68687000 </v>
    <v>       0.00013000       0.29519000       0.06281000 </v>
    <v>       0.25013000       0.70481000       0.06281000 </v>
    <v>       0.24987000       0.29519000       0.31282000 </v>
    <v>       0.49987000       0.70481000       0.31282000 </v>
    <v>       0.50013000       0.29519000       0.06281000 </v>
    <v>       0.75013000       0.70481000       0.06281000 </v>
    <v>       0.74987000       0.29519000       0.31282000 </v>
    <v>       0.99987000       0.70481000       0.31282000 </v>
    <v>       0.00013000       0.29519000       0.56281000 </v>
    <v>       0.25013000       0.70481000       0.56281000 </v>
    <v>       0.24987000       0.29519000       0.81282000 </v>
    <v>       0.49987000       0.70481000       0.81282000 </v>
    <v>       0.50013000       0.29519000       0.56281000 </v>
    <v>       0.75013000       0.70481000       0.56281000 </v>
    <v>       0.74987000       0.29519000       0.81282000 </v>
    <v>       0.99987000       0.70481000       0.81282000 </v>
    <v>       0.25005000       0.32677000       0.06286000 </v>
    <v>       0.00005000       0.67323000       0.06286000 </v>
    <v>       0.49995000       0.32677000       0.31286000 </v>
    <v>       0.24995000       0.67323000       0.31286000 </v>
    <v>       0.75005000       0.32677000       0.06286000 </v>
    <v>       0.50005000       0.67323000       0.06286000 </v>
    <v>       0.99995000       0.32677000       0.31286000 </v>
    <v>       0.74995000       0.67323000       0.31286000 </v>
    <v>       0.25005000       0.32677000       0.56286000 </v>
    <v>       0.00005000       0.67323000       0.56286000 </v>
    <v>       0.49995000       0.32677000       0.81286000 </v>
    <v>       0.24995000       0.67323000       0.81286000 </v>
    <v>       0.75005000       0.32677000       0.56286000 </v>
    <v>       0.50005000       0.67323000       0.56286000 </v>
    <v>       0.99995000       0.32677000       0.81286000 </v>
    <v>       0.74995000       0.67323000       0.81286000 </v>
    <v>       0.49987000       0.07798000       0.06246000 </v>
    <v>       0.24987000       0.92202000       0.06246000 </v>
    <v>       0.25013000       0.07798000       0.31246000 </v>
    <v>       0.00013000       0.92202000       0.31246000 </v>
    <v>       0.99987000       0.07798000       0.06246000 </v>
    <v>       0.74987000       0.92202000       0.06246000 </v>
    <v>       0.75013000       0.07798000       0.31246000 </v>
    <v>       0.50013000       0.92202000       0.31246000 </v>
    <v>       0.49987000       0.07798000       0.56246000 </v>
    <v>       0.24987000       0.92202000       0.56246000 </v>
    <v>       0.25013000       0.07798000       0.81246000 </v>
    <v>       0.00013000       0.92202000       0.81246000 </v>
    <v>       0.99987000       0.07798000       0.56246000 </v>
    <v>       0.74987000       0.92202000       0.56246000 </v>
    <v>       0.75013000       0.07798000       0.81246000 </v>
    <v>       0.50013000       0.92202000       0.81246000 </v>
   </varray>
  </structure>
  <varray name="forces" >
   <v>      -0.38860397       0.05261885      -0.53046943 </v>
   <v>      -0.12462467       0.04741926       0.23057096 </v>
   <v>      -0.18228982       0.07363372      -0.72714235 </v>
   <v>       0.38377856      -0.06040663      -1.03284110 </v>
   <v>       0.13714069      -0.05586100       0.70654255 </v>
   <v>       0.65211645       0.06333094       1.22319147 </v>
   <v>       0.09721299      -0.07156966       0.55257829 </v>
   <v>       0.33566173      -0.06509573      -0.22979502 </v>
   <v>      -0.67066162      -0.07546348       0.73307210 </v>
   <v>      -0.66572920      -0.06799030      -0.14318356 </v>
   <v>       1.39285360       0.10105109      -1.29151929 </v>
   <v>      -0.22332261       0.09622172       1.95090718 </v>
   <v>      -0.77483277       0.08615069      -1.31952764 </v>
   <v>       0.40649844       0.13143146       0.85229701 </v>
   <v>       0.08041364       1.00344777       0.63745199 </v>
   <v>      -0.08962169      -1.96357269      -0.17965284 </v>
   <v>      -0.06735178       1.03857183      -0.27907566 </v>
   <v>      -0.10042497      -1.04147022       0.54786690 </v>
   <v>      -0.40788743      -0.08294859       0.75003044 </v>
   <v>      -0.23014692      -0.95645037      -0.27126640 </v>
   <v>       0.40395916       1.89212798      -0.17715079 </v>
   <v>       0.31790237       1.20183650      -1.04054070 </v>
   <v>       0.17766998      -0.06721714      -0.79899574 </v>
   <v>       0.42801583       1.15674875       0.32178911 </v>
   <v>      -0.20060719      -0.11887618       0.20641574 </v>
   <v>      -0.19279926       0.04696466      -0.50508848 </v>
   <v>      -0.32266354      -1.13732333      -0.71797816 </v>
   <v>      -0.52569539       2.15006608       0.22202161 </v>
   <v>       0.31599508      -3.06875269       0.34751680 </v>
   <v>      -0.19368890       0.22242599      -0.54957928 </v>
   <v>      -0.21523156      -0.09886474      -0.71840663 </v>
   <v>       0.20049265       0.29843073       0.22247107 </v>
   <v>       0.05237676      -0.26128237       0.20057453 </v>
   <v>       0.22306291       0.10291256      -0.56397672 </v>
   <v>       0.17923964      -0.23337800      -0.35530247 </v>
   <v>      -0.18749789       0.20514003       0.18989702 </v>
   <v>      -0.05161015      -0.24592937       0.21431518 </v>
   <v>      -0.22330944       0.09342238       0.53619491 </v>
   <v>      -0.16246865       0.06235589       0.69359729 </v>
   <v>       0.16573618       0.12372031      -0.15892135 </v>
   <v>      -0.33511479      -0.06870339      -0.19214977 </v>
   <v>       0.20566421       0.04256988       0.49993883 </v>
   <v>       0.17688411      -0.18796048       0.30374052 </v>
   <v>      -0.17991736      -0.16574093      -0.17508548 </v>
   <v>       0.34424315       0.09856013      -0.14245883 </v>
   <v>      -0.42506802       0.87573007      -0.90637545 </v>
   <v>       0.41806811      -0.82727407      -1.02670150 </v>
   <v>       1.06256258       1.68183943       0.13094640 </v>
   <v>      -1.20720482      -1.55623258       0.14041898 </v>
   <v>      -1.13289754      -0.23930720      -1.66907313 </v>
   <v>       1.18489995       0.19762264      -1.55515252 </v>
   <v>       0.58117004       0.83399695       0.77870445 </v>
   <v>      -0.44051053      -0.95875311       0.76258272 </v>
   <v>       0.16730607      -0.05140730       0.32799568 </v>
   <v>      -0.08551609       0.08915792       1.52720206 </v>
   <v>      -0.86523005      -0.99062922      -0.64134693 </v>
   <v>      -0.61796139       2.45315912      -0.62872814 </v>
   <v>      -0.70620367      -1.13994268       2.10188056 </v>
   <v>       0.67267167       0.99710799       0.98475496 </v>
   <v>       1.26742819      -1.83948104      -0.20472739 </v>
   <v>       0.16566892       0.17811115      -0.16525455 </v>
  </varray>
  <varray name="stress" >
   <v>      -3.11088208       0.13449678      -0.09933306 </v>
   <v>       0.13449656     -13.20731803      -0.22237434 </v>
   <v>      -0.09933299      -0.22237468      -5.31529782 </v>
  </varray>
  <energy>
   <i name="e_fr_energy">   -309.14651529 </i>
   <i name="e_wo_entrp">   -309.14651529 </i>
   <i name="e_0_energy">      0.00000000 </i>
  </energy>
  <time name="totalsc"> 1589.45 1602.08</time>
 </calculation>
 <calculation>
  <scstep>
   <time name="dav">   62.93   63.29</time>
   <time name="total">   63.84   64.20</time>
   <energy>
    <i name="alphaZ">   1087.36768531 </i>
    <i name="ewald"> -30997.07287766 </i>
    <i name="hartreedc"> -12993.27440401 </i>
    <i name="XCdc">   1425.79535408 </i>
    <i name="pawpsdc">  43842.94179088 </i>
    <i name="pawaedc"> -43321.11759016 </i>
    <i name="eentropy">      0.00000000 </i>
    <i name="bandstr">  -4128.88182977 </i>
    <i name="atom">  44791.06186932 </i>
    <i name="e_fr_energy">   -293.18000201 </i>
    <i name="e_wo_entrp">   -293.18000201 </i>
    <i name="e_0_energy">   -293.18000201 </i>
   </energy>
  </scstep>
  <scstep>
   <time name="dav">   67.28   67.55</time>
   <time name="total">   68.11   68.38</time>
   <energy>
    <i name="e_fr_energy">   -296.91000279 </i>
    <i name="e_wo_entrp">   -296.91000279 </i>
    <i name="e_0_energy">   -296.91000279 </i>
   </energy>
  </scstep>
  <scstep>
   <time name="dav">   88.02   88.39</time>
   <time name="total">   88.84   89.22</time>
   <energy>
    <i name="e_fr_energy">   -296.69994342 </i>
    <i name="e_wo_entrp">   -296.69994342 </i>
    <i name="e_0_energy">   -296.69994342 </i>
   </energy>
  </scstep>
  <scstep>
   <time name="dav">   79.02   79.91</time>
   <time name="total">   79.85   80.74</time>
   <energy>
    <i name="e_fr_energy">   -296.53496283 </i>
    <i name="e_wo_entrp">   -296.53496283 </i>
    <i name="e_0_energy">   -296.53496283 </i>
   </energy>
  </scstep>
  <scstep>
   <time name="dav">   81.22   82.69</time>
   <time name="total">   82.13   83.61</time>
   <energy>
    <i name="e_fr_energy">   -296.51688919 </i>
    <i name="e_wo_entrp">   -296.51688919 </i>
    <i name="e_0_energy">   -296.51688919 </i>
   </energy>
  </scstep>
  <scstep>
   <time name="dav">   80.75   81.50</time>
   <time name="total">   81.58   82.34</time>
   <energy>
    <i name="e_fr_energy">   -296.51430328 </i>
    <i name="e_wo_entrp">   -296.51430328 </i>
    <i name="e_0_energy">   -296.51430328 </i>
   </energy>
  </scstep>
  <scstep>
   <time name="dav">   73.96   74.37</time>
   <time name="total">   74.80   75.21</time>
   <energy>
    <i name="e_fr_energy">   -296.51255323 </i>
    <i name="e_wo_entrp">   -296.51255323 </i>
    <i name="e_0_energy">   -296.51255323 </i>
   </energy>
  </scstep>
  <scstep>
   <time name="dav">   93.50   93.88</time>
   <time name="total">   94.33   94.71</time>
   <energy>
    <i name="e_fr_energy">   -296.51233891 </i>
    <i name="e_wo_entrp">   -296.51233891 </i>
    <i name="e_0_energy">   -296.51233891 </i>
   </energy>
  </scstep>
  <scstep>
   <time name="dav">   72.39   72.85</time>
   <time name="total">   73.22   73.69</time>
   <energy>
    <i name="e_fr_energy">   -296.51237444 </i>
    <i name="e_wo_entrp">   -296.51237444 </i>
    <i name="e_0_energy">   -296.51237444 </i>
   </energy>
  </scstep>
  <scstep>
   <time name="dav">   87.35   87.89</time>
   <time name="total">   88.18   88.73</time>
   <energy>
    <i name="e_fr_energy">   -296.51238071 </i>
    <i name="e_wo_entrp">   -296.51238071 </i>
    <i name="e_0_energy">   -296.51238071 </i>
   </energy>
  </scstep>
  <scstep>
   <time name="dav">   66.07   66.70</time>
   <time name="total">   66.89   67.53</time>
   <energy>
    <i name="e_fr_energy">   -296.51238344 </i>
    <i name="e_wo_entrp">   -296.51238344 </i>
    <i name="e_0_energy">   -296.51238344 </i>
   </energy>
  </scstep>
  <scstep>
   <time name="dav">   69.82   70.08</time>
   <time name="total">   69.89   70.16</time>
   <energy>
    <i name="alphaZ">   1087.36768531 </i>
    <i name="ewald"> -30997.07287766 </i>
    <i name="hartreedc"> -12882.98511829 </i>
    <i name="XCdc">   1421.03230294 </i>
    <i name="pawpsdc">  44193.89512325 </i>
    <i name="pawaedc"> -43675.07397995 </i>
    <i name="eentropy">      0.00000000 </i>
    <i name="bandstr">  -4234.73738807 </i>
    <i name="atom">  44791.06186932 </i>
    <i name="e_fr_energy">   -296.51238316 </i>
    <i name="e_wo_entrp">   -296.51238316 </i>
    <i name="e_0_energy">   -296.51238316 </i>
   </energy>
  </scstep>
  <structure>
   <crystal>
    <varray name="basis" >
     <v>      11.15795543       0.00088823      -0.00065601 </v>
     <v>       0.00076078       9.49989232      -0.00125787 </v>
     <v>      -0.00065623      -0.00146910      11.14728501 </v>
    </varray>
    <i name="volume">   1181.60521260 </i>
    <varray name="rec_basis" >
     <v>       0.08962215      -0.00000718       0.00000528 </v>
     <v>      -0.00000838       0.10526435       0.00001387 </v>
     <v>       0.00000527       0.00001188       0.08970794 </v>
    </varray>
   </crystal>
   <varray name="positions" >
    <v>       0.37371292       0.00043513       0.43458147 </v>
    <v>       0.37407216       0.00040893       0.18786472 </v>
    <v>       0.62460330       0.00021101       0.43373299 </v>
    <v>       0.87704626      -0.00013437       0.43241416 </v>
    <v>       0.87520185      -0.00011146       0.18991814 </v>
    <v>       0.12820432       0.00015910       0.94214704 </v>
    <v>       0.37580954      -0.00019061       0.93925391 </v>
    <v>       0.37605860      -0.00015799       0.68587863 </v>
    <v>       0.62249565       0.99945977       0.94003259 </v>
    <v>       0.62173694       0.99949742       0.68625228 </v>
    <v>       0.13062109       0.00034916       0.68129818 </v>
    <v>       0.87442621       0.00065482       0.94528652 </v>
    <v>       0.87126608       0.00060408       0.68117735 </v>
    <v>       0.00188431       0.29585223       0.06648694 </v>
    <v>       0.25047704       0.70986598       0.06556007 </v>
    <v>       0.24948322       0.28529633       0.31204495 </v>
    <v>       0.49957933       0.71004296       0.31161602 </v>
    <v>       0.49969660       0.28994244       0.06517359 </v>
    <v>       0.74836969       0.70439205       0.06604575 </v>
    <v>       0.74887676       0.29037082       0.31164971 </v>
    <v>       0.00161335       0.71434369       0.31205574 </v>
    <v>       0.00150196       0.30124558       0.55832094 </v>
    <v>       0.25089676       0.70447132       0.55936301 </v>
    <v>       0.25171717       0.30101840       0.81420825 </v>
    <v>       0.49900425       0.70421103       0.81371051 </v>
    <v>       0.49929794       0.29542664       0.56063097 </v>
    <v>       0.74873749       0.69907947       0.55971253 </v>
    <v>       0.74760128       0.30602334       0.81377784 </v>
    <v>       0.00123373       0.68934776       0.81431924 </v>
    <v>       0.24921410       0.32789072       0.06048903 </v>
    <v>      -0.00087887       0.67273186       0.05976068 </v>
    <v>       0.50081526       0.32827368       0.31381978 </v>
    <v>       0.25017604       0.67191350       0.31372531 </v>
    <v>       0.75101266       0.32728854       0.06042691 </v>
    <v>       0.50082354       0.67205410       0.06132717 </v>
    <v>       0.99914082       0.32780362       0.31367925 </v>
    <v>       0.74972727       0.67199086       0.31378459 </v>
    <v>       0.24908627       0.32724072       0.56517323 </v>
    <v>      -0.00065116       0.67354419       0.56585229 </v>
    <v>       0.50066526       0.32739338       0.81217439 </v>
    <v>       0.24850376       0.67288383       0.81203104 </v>
    <v>       0.75093758       0.32698449       0.56501682 </v>
    <v>       0.50081337       0.67228294       0.56417038 </v>
    <v>       0.99917354       0.32593490       0.81210465 </v>
    <v>       0.75143564       0.67372661       0.81224541 </v>
    <v>       0.49803555       0.08239246       0.05854975 </v>
    <v>       0.25167424       0.91785169       0.05803065 </v>
    <v>       0.25471566       0.08645413       0.31302492 </v>
    <v>      -0.00507989       0.91417875       0.31306579 </v>
    <v>       0.99498079       0.07677422       0.05525935 </v>
    <v>       0.75498363       0.92301574       0.05575082 </v>
    <v>       0.75263813       0.08218218       0.31581945 </v>
    <v>       0.49822890       0.91718922       0.31574990 </v>
    <v>       0.50059204       0.07772098       0.56387503 </v>
    <v>       0.24950094       0.92246923       0.56904859 </v>
    <v>       0.24639596       0.07298861       0.80969313 </v>
    <v>      -0.00253691       0.93438051       0.80974757 </v>
    <v>       0.99682226       0.07223628       0.57152785 </v>
    <v>       0.75277303       0.92704404       0.56670839 </v>
    <v>       0.75559979       0.06871158       0.81157677 </v>
    <v>       0.50084497       0.92291743       0.81174707 </v>
   </varray>
  </structure>
  <varray name="forces" >
   <v>      -0.31688358       0.01879552      -0.24705795 </v>
   <v>      -0.09400263       0.02014659       0.14785909 </v>
   <v>      -0.05733519       0.04349917      -0.39698468 </v>
   <v>       0.32611881      -0.01967270      -0.48449559 </v>
   <v>       0.10859342      -0.03211495       0.44160518 </v>
   <v>       0.21741792       0.04811205       0.50419856 </v>
   <v>       0.00072955      -0.04768096       0.19756102 </v>
   <v>       0.25194119      -0.04010493      -0.05464577 </v>
   <v>      -0.27442352      -0.05394626       0.35479232 </v>
   <v>      -0.27424262      -0.04463001       0.00820516 </v>
   <v>      -0.07922990       0.13829466      -0.14441034 </v>
   <v>       0.05395622       0.02339677      -0.38956590 </v>
   <v>      -0.08610264       0.03553688       0.28060907 </v>
   <v>       0.19739455       0.03839222       0.19597759 </v>
   <v>      -0.04273743      -1.03792042       0.24590350 </v>
   <v>      -0.17944269       2.57539030      -0.06455368 </v>
   <v>       0.01748721      -1.28353899      -0.14340937 </v>
   <v>       0.03070569       1.11966529       0.27867627 </v>
   <v>      -0.20056568      -0.09233253       0.23074000 </v>
   <v>      -0.19487621       1.06467351      -0.12508159 </v>
   <v>       0.36158611      -2.27288757      -0.04612248 </v>
   <v>       0.10262613      -0.22548277      -0.27160256 </v>
   <v>       0.02580722      -0.24075800      -0.32054350 </v>
   <v>       0.03760342      -0.12089482       0.11762371 </v>
   <v>      -0.04147612      -0.10355515       0.06104874 </v>
   <v>      -0.04059431       0.23843526      -0.21291099 </v>
   <v>      -0.09811352       0.06756638      -0.19207994 </v>
   <v>      -0.05419706      -0.16315831       0.05910665 </v>
   <v>       0.07190432       0.04183394       0.09075531 </v>
   <v>      -0.09715142       0.14217875      -0.26921231 </v>
   <v>      -0.12132025      -0.14081196      -0.30759605 </v>
   <v>       0.09705527       0.18971185       0.13417197 </v>
   <v>       0.08108578      -0.11343039       0.12010411 </v>
   <v>       0.11856278       0.11778133      -0.26427533 </v>
   <v>       0.09688351      -0.13814411      -0.17076587 </v>
   <v>      -0.12055673       0.09191364       0.09217130 </v>
   <v>      -0.03232016      -0.15881054       0.12021399 </v>
   <v>      -0.12725341       0.10551698       0.23708403 </v>
   <v>      -0.05479623      -0.12705283       0.25681271 </v>
   <v>       0.06641977       0.15388004      -0.05166281 </v>
   <v>      -0.12217481      -0.21228443      -0.08105283 </v>
   <v>       0.09326390       0.17056201       0.18935511 </v>
   <v>       0.08340669      -0.17902697       0.11047468 </v>
   <v>      -0.04883806       0.30060297      -0.04423104 </v>
   <v>       0.09960893      -0.21944936      -0.03801438 </v>
   <v>      -0.47498844      -1.24432328      -0.56674115 </v>
   <v>       0.50496227       1.15955380      -0.57762638 </v>
   <v>       1.06816263      -2.87140981       0.04147999 </v>
   <v>      -1.10396495       2.57840930       0.02407002 </v>
   <v>      -0.40414677       0.23017099      -0.41183849 </v>
   <v>       0.40151100      -0.15486767      -0.41495853 </v>
   <v>       0.49805914      -1.16554352       0.54009835 </v>
   <v>      -0.47130595       1.37665759       0.54960008 </v>
   <v>       0.02050416      -0.20151071       0.02681165 </v>
   <v>       0.49107551      -0.05664365       0.51309834 </v>
   <v>      -0.18271165       0.42599319      -0.23907961 </v>
   <v>      -0.19772685      -0.71507505      -0.25465919 </v>
   <v>      -0.20932356       0.69919425       0.60104998 </v>
   <v>      -0.08077495      -0.51538981      -0.06525882 </v>
   <v>       0.35201921       0.67508092       0.08994854 </v>
   <v>       0.00712497       0.10150631      -0.01076989 </v>
  </varray>
  <varray name="stress" >
   <v>       5.89298759       0.47343477      -0.18729162 </v>
   <v>       0.47343572      12.87434388       0.47264790 </v>
   <v>      -0.18729155       0.47264775       7.73557736 </v>
  </varray>
  <energy>
   <i name="e_fr_energy">   -311.32643830 </i>
   <i name="e_wo_entrp">   -311.32643830 </i>
   <i name="e_0_energy">      0.00000000 </i>
  </energy>
  <time name="totalsc"> 1035.99 1044.02</time>
 </calculation>
 <calculation>
  <scstep>
   <time name="dav">   64.29   65.34</time>
   <time name="total">   65.10   66.17</time>
   <energy>
    <i name="alphaZ">   1085.41404036 </i>
    <i name="ewald"> -30985.37420797 </i>
    <i name="hartreedc"> -12871.04606297 </i>
    <i name="XCdc">   1419.89484889 </i>
    <i name="pawpsdc">  44194.24875181 </i>
    <i name="pawaedc"> -43675.43027775 </i>
    <i name="eentropy">      0.00000000 </i>
    <i name="bandstr">  -4255.29785549 </i>
    <i name="atom">  44791.06186932 </i>
    <i name="e_fr_energy">   -296.52889379 </i>
    <i name="e_wo_entrp">   -296.52889379 </i>
    <i name="e_0_energy">   -296.52889379 </i>
   </energy>
  </scstep>
  <scstep>
   <time name="dav">   70.04   70.47</time>
   <time name="total">   70.80   71.31</time>
   <energy>
    <i name="e_fr_energy">   -296.60592182 </i>
    <i name="e_wo_entrp">   -296.60592182 </i>
    <i name="e_0_energy">   -296.60592182 </i>
   </energy>
  </scstep>
  <scstep>
   <time name="dav">   79.77   80.32</time>
   <time name="total">   80.61   81.16</time>
   <energy>
    <i name="e_fr_energy">   -296.60157586 </i>
    <i name="e_wo_entrp">   -296.60157586 </i>
    <i name="e_0_energy">   -296.60157586 </i>
   </energy>
  </scstep>
  <scstep>
   <time name="dav">   70.18   70.41</time>
   <time name="total">   71.01   71.25</time>
   <energy>
    <i name="e_fr_energy">   -296.59770742 </i>
    <i name="e_wo_entrp">   -296.59770742 </i>
    <i name="e_0_energy">   -296.59770742 </i>
   </energy>
  </scstep>
  <scstep>
   <time name="dav">   84.97   85.32</time>
   <time name="total">   85.80   86.16</time>
   <energy>
    <i name="e_fr_energy">   -296.59731328 </i>
    <i name="e_wo_entrp">   -296.59731328 </i>
    <i name="e_0_energy">   -296.59731328 </i>
   </energy>
  </scstep>
  <scstep>
   <time name="dav">   73.26   73.55</time>
   <time name="total">   74.09   74.38</time>
   <energy>
    <i name="e_fr_energy">   -296.59727691 </i>
    <i name="e_wo_entrp">   -296.59727691 </i>
    <i name="e_0_energy">   -296.59727691 </i>
   </energy>
  </scstep>
  <scstep>
   <time name="dav">   82.50   82.83</time>
   <time name="total">   83.33   83.66</time>
   <energy>
    <i name="e_fr_energy">   -296.59722991 </i>
    <i name="e_wo_entrp">   -296.59722991 </i>
    <i name="e_0_energy">   -296.59722991 </i>
   </energy>
  </scstep>
  <scstep>
   <time name="dav">   71.05   71.34</time>
   <time name="total">   71.89   72.17</time>
   <energy>
    <i name="e_fr_energy">   -296.59721683 </i>
    <i name="e_wo_entrp">   -296.59721683 </i>
    <i name="e_0_energy">   -296.59721683 </i>
   </energy>
  </scstep>
  <scstep>
   <time name="dav">   84.22   85.05</time>
   <time name="total">   84.99   85.91</time>
   <energy>
    <i name="e_fr_energy">   -296.59721555 </i>
    <i name="e_wo_entrp">   -296.59721555 </i>
    <i name="e_0_energy">   -296.59721555 </i>
   </energy>
  </scstep>
  <scstep>
   <time name="dav">   59.80   60.31</time>
   <time name="total">   60.64   61.15</time>
   <energy>
    <i name="e_fr_energy">   -296.59721671 </i>
    <i name="e_wo_entrp">   -296.59721671 </i>
    <i name="e_0_energy">   -296.59721671 </i>
   </energy>
  </scstep>
  <scstep>
   <time name="dav">   52.22   52.65</time>
   <time name="total">   53.05   53.48</time>
   <energy>
    <i name="e_fr_energy">   -296.59721782 </i>
    <i name="e_wo_entrp">   -296.59721782 </i>
    <i name="e_0_energy">   -296.59721782 </i>
   </energy>
  </scstep>
  <scstep>
   <time name="dav">   43.69   44.16</time>
   <time name="total">   43.77   44.23</time>
   <energy>
    <i name="alphaZ">   1085.41404036 </i>
    <i name="ewald"> -30985.37420797 </i>
    <i name="hartreedc"> -12886.82944212 </i>
    <i name="XCdc">   1420.58490710 </i>
    <i name="pawpsdc">  44129.54148289 </i>
    <i name="pawaedc"> -43610.04026417 </i>
    <i name="eentropy">      0.00000000 </i>
    <i name="bandstr">  -4240.95560399 </i>
    <i name="atom">  44791.06186932 </i>
    <i name="e_fr_energy">   -296.59721857 </i>
    <i name="e_wo_entrp">   -296.59721857 </i>
    <i name="e_0_energy">   -296.59721857 </i>
   </energy>
  </scstep>
  <structure>
   <crystal>
    <varray name="basis" >
     <v>      11.16083049       0.00076393      -0.00056420 </v>
     <v>       0.00065432       9.51034711      -0.00108184 </v>
     <v>      -0.00056440      -0.00126351      11.15219909 </v>
    </varray>
    <i name="volume">   1183.73199275 </i>
    <varray name="rec_basis" >
     <v>       0.08959907      -0.00000616       0.00000453 </v>
     <v>      -0.00000720       0.10514864       0.00001191 </v>
     <v>       0.00000453       0.00001020       0.08966841 </v>
    </varray>
   </crystal>
   <varray name="positions" >
    <v>       0.37394806       0.00039776       0.43490275 </v>
    <v>       0.37414756       0.00037520       0.18772508 </v>
    <v>       0.62471362       0.00015874       0.43417338 </v>
    <v>       0.87681409      -0.00009132       0.43303968 </v>
    <v>       0.87511885      -0.00007182       0.18949023 </v>
    <v>       0.12780971       0.00011402       0.94140621 </v>
    <v>       0.37575070      -0.00013980       0.93891925 </v>
    <v>       0.37585551      -0.00011169       0.68601779 </v>
    <v>       0.62290141       0.99951329       0.93958864 </v>
    <v>       0.62213974       0.99954572       0.68633903 </v>
    <v>       0.12977838       0.00027754       0.68208031 </v>
    <v>       0.87456127       0.00058625       0.94410498 </v>
    <v>       0.87173495       0.00054294       0.68197652 </v>
    <v>       0.00163833       0.29575877       0.06597074 </v>
    <v>       0.25042841       0.70915281       0.06517392 </v>
    <v>       0.24953736       0.28669177       0.31215391 </v>
    <v>       0.49962014       0.70930491       0.31178496 </v>
    <v>       0.49975729       0.29068252       0.06484186 </v>
    <v>       0.74861646       0.70445091       0.06559153 </v>
    <v>       0.74901598       0.29105055       0.31181409 </v>
    <v>       0.00136903       0.71299907       0.31216287 </v>
    <v>       0.00130971       0.30039160       0.55895102 </v>
    <v>       0.25078929       0.70451917       0.55984691 </v>
    <v>       0.25145824       0.30019634       0.81401325 </v>
    <v>       0.49912561       0.70429548       0.81358551 </v>
    <v>       0.49941462       0.29539330       0.56093687 </v>
    <v>       0.74893269       0.69988777       0.56014746 </v>
    <v>       0.74791945       0.30449532       0.81364322 </v>
    <v>       0.00104237       0.69152859       0.81410901 </v>
    <v>       0.24933133       0.32773269       0.06082186 </v>
    <v>      -0.00074862       0.67280217       0.06019579 </v>
    <v>       0.50069396       0.32806158       0.31368501 </v>
    <v>       0.25014433       0.67209917       0.31360385 </v>
    <v>       0.75087772       0.32721547       0.06076846 </v>
    <v>       0.50071509       0.67222000       0.06154237 </v>
    <v>       0.99925427       0.32765781       0.31356423 </v>
    <v>       0.74975848       0.67216561       0.31365481 </v>
    <v>       0.24922137       0.32717426       0.56484849 </v>
    <v>      -0.00055288       0.67349980       0.56543222 </v>
    <v>       0.50056499       0.32730548       0.81227062 </v>
    <v>       0.24870652       0.67293265       0.81214743 </v>
    <v>       0.75081312       0.32695420       0.56471402 </v>
    <v>       0.50070633       0.67241650       0.56398644 </v>
    <v>       0.99928240       0.32605269       0.81221071 </v>
    <v>       0.75122736       0.67365660       0.81233167 </v>
    <v>       0.49829281       0.08177017       0.05909863 </v>
    <v>       0.25142128       0.91843972       0.05865251 </v>
    <v>       0.25407283       0.08525896       0.31294544 </v>
    <v>      -0.00434954       0.91528463       0.31298091 </v>
    <v>       0.99566631       0.07694438       0.05627026 </v>
    <v>       0.75426676       0.92287551       0.05669262 </v>
    <v>       0.75228651       0.08158945       0.31534776 </v>
    <v>       0.49849536       0.91787047       0.31528815 </v>
    <v>       0.50049079       0.07775749       0.56367638 </v>
    <v>       0.24955263       0.92240572       0.56812366 </v>
    <v>       0.24691945       0.07369262       0.81008166 </v>
    <v>      -0.00216287       0.93263717       0.81012817 </v>
    <v>       0.99724943       0.07304615       0.57025499 </v>
    <v>       0.75236603       0.92633538       0.56611188 </v>
    <v>       0.75483285       0.07001891       0.81170087 </v>
    <v>       0.50074475       0.92279088       0.81184713 </v>
   </varray>
  </structure>
  <varray name="forces" >
   <v>      -0.32923530       0.02529072      -0.28956808 </v>
   <v>      -0.09964084       0.02568553       0.16064873 </v>
   <v>      -0.07433131       0.04661847      -0.44384113 </v>
   <v>       0.33693288      -0.02737026      -0.56508138 </v>
   <v>       0.11457662      -0.03722107       0.48021712 </v>
   <v>       0.27734846       0.04675877       0.60383106 </v>
   <v>       0.01350978      -0.05040429       0.24973470 </v>
   <v>       0.26310755      -0.04363444      -0.08049846 </v>
   <v>      -0.32955453      -0.05429377       0.40803344 </v>
   <v>      -0.32959527      -0.04709674      -0.01289132 </v>
   <v>       0.14728728       0.11486015      -0.31902891 </v>
   <v>       0.01641354       0.02874140      -0.01315452 </v>
   <v>      -0.18466962       0.03742768       0.02786947 </v>
   <v>       0.22946522       0.05328291       0.28895804 </v>
   <v>      -0.02261893      -0.68757403       0.29328187 </v>
   <v>      -0.14406197       1.65683204      -0.07640522 </v>
   <v>       0.00330493      -0.87740475      -0.15549887 </v>
   <v>       0.00930872       0.74602704       0.30909905 </v>
   <v>      -0.23243436      -0.09415392       0.30474977 </v>
   <v>      -0.19646055       0.71849729      -0.13879224 </v>
   <v>       0.34298853      -1.44622886      -0.06011255 </v>
   <v>       0.13580000      -0.06557388      -0.38672936 </v>
   <v>       0.04752127      -0.21728066      -0.39151952 </v>
   <v>       0.09132848       0.02709695       0.15019561 </v>
   <v>      -0.06272390      -0.10453093       0.08272221 </v>
   <v>      -0.06177784       0.20933501      -0.25674872 </v>
   <v>      -0.13242213      -0.07039365      -0.27096018 </v>
   <v>      -0.12061544       0.06160593       0.08342749 </v>
   <v>       0.10620553      -0.22172418       0.12900558 </v>
   <v>      -0.11184595       0.15563306      -0.31289013 </v>
   <v>      -0.13411722      -0.13715449      -0.37228271 </v>
   <v>       0.11375940       0.20796850       0.14759761 </v>
   <v>       0.07563386      -0.13722482       0.13343002 </v>
   <v>       0.13268734       0.11674396      -0.31005288 </v>
   <v>       0.10974018      -0.15280430      -0.19792619 </v>
   <v>      -0.12917014       0.10923498       0.10882920 </v>
   <v>      -0.03626453      -0.17250709       0.13515840 </v>
   <v>      -0.14146249       0.10568703       0.28094187 </v>
   <v>      -0.06984686      -0.10410995       0.32119583 </v>
   <v>       0.08168684       0.15030011      -0.06634141 </v>
   <v>      -0.15476327      -0.19331928      -0.09646275 </v>
   <v>       0.10873648       0.15403342       0.23424198 </v>
   <v>       0.09731334      -0.18084209       0.13804282 </v>
   <v>      -0.06722584       0.24210830      -0.06232709 </v>
   <v>       0.13469524      -0.17894344      -0.05184749 </v>
   <v>      -0.46592922      -0.88021803      -0.60662129 </v>
   <v>       0.49104564       0.82093957      -0.63330206 </v>
   <v>       1.04582844      -1.95846262       0.04984726 </v>
   <v>      -1.09347163       1.76407308       0.03665423 </v>
   <v>      -0.54367876       0.14088304      -0.62035236 </v>
   <v>       0.55043006      -0.07854908      -0.60914524 </v>
   <v>       0.50523299      -0.82403726       0.56858310 </v>
   <v>      -0.46387962       0.97066755       0.57316222 </v>
   <v>       0.04139868      -0.17934458       0.07052239 </v>
   <v>       0.38477977      -0.01653672       0.68183601 </v>
   <v>      -0.28548292       0.25327084      -0.30473480 </v>
   <v>      -0.26130003      -0.42653545      -0.31296612 </v>
   <v>      -0.30555759       0.46588588       0.84270711 </v>
   <v>       0.05621467      -0.31614785       0.11329113 </v>
   <v>       0.49055468       0.41506745       0.04360263 </v>
   <v>       0.02930165       0.11106584      -0.03333497 </v>
  </varray>
  <varray name="stress" >
   <v>       4.22100428       0.49484156      -0.15385499 </v>
   <v>       0.49484146       6.59670248       0.34207618 </v>
   <v>      -0.15385514       0.34207574       5.51179612 </v>
  </varray>
  <energy>
   <i name="e_fr_energy">   -311.38942673 </i>
   <i name="e_wo_entrp">   -311.38942673 </i>
   <i name="e_0_energy">      0.00000000 </i>
  </energy>
  <time name="totalsc">  949.27  956.75</time>
 </calculation>
 <calculation>
  <scstep>
   <time name="dav">   64.96   65.71</time>
   <time name="total">   65.79   66.54</time>
   <energy>
    <i name="alphaZ">   1079.27321875 </i>
    <i name="ewald"> -31042.73051833 </i>
    <i name="hartreedc"> -12754.56244282 </i>
    <i name="XCdc">   1416.60513255 </i>
    <i name="pawpsdc">  44129.52053774 </i>
    <i name="pawaedc"> -43610.01905132 </i>
    <i name="eentropy">      0.00000000 </i>
    <i name="bandstr">  -4305.14841438 </i>
    <i name="atom">  44791.06186932 </i>
    <i name="e_fr_energy">   -295.99966848 </i>
    <i name="e_wo_entrp">   -295.99966848 </i>
    <i name="e_0_energy">   -295.99966848 </i>
   </energy>
  </scstep>
  <scstep>
   <time name="dav">   67.67   68.23</time>
   <time name="total">   68.50   69.06</time>
   <energy>
    <i name="e_fr_energy">   -297.32594722 </i>
    <i name="e_wo_entrp">   -297.32594722 </i>
    <i name="e_0_energy">   -297.32594722 </i>
   </energy>
  </scstep>
  <scstep>
   <time name="dav">   86.32   87.21</time>
   <time name="total">   87.14   88.05</time>
   <energy>
    <i name="e_fr_energy">   -297.30440593 </i>
    <i name="e_wo_entrp">   -297.30440593 </i>
    <i name="e_0_energy">   -297.30440593 </i>
   </energy>
  </scstep>
  <scstep>
   <time name="dav">   76.26   76.71</time>
   <time name="total">   77.09   77.54</time>
   <energy>
    <i name="e_fr_energy">   -297.27698476 </i>
    <i name="e_wo_entrp">   -297.27698476 </i>
    <i name="e_0_energy">   -297.27698476 </i>
   </energy>
  </scstep>
  <scstep>
   <time name="dav">   74.06   74.33</time>
   <time name="total">   74.89   75.16</time>
   <energy>
    <i name="e_fr_energy">   -297.26029523 </i>
    <i name="e_wo_entrp">   -297.26029523 </i>
    <i name="e_0_energy">   -297.26029523 </i>
   </energy>
  </scstep>
  <scstep>
   <time name="dav">   73.08   73.56</time>
   <time name="total">   73.91   74.39</time>
   <energy>
    <i name="e_fr_energy">   -297.25970933 </i>
    <i name="e_wo_entrp">   -297.25970933 </i>
    <i name="e_0_energy">   -297.25970933 </i>
   </energy>
  </scstep>
  <scstep>
   <time name="dav">   76.68   76.79</time>
   <time name="total">   77.51   77.62</time>
   <energy>
    <i name="e_fr_energy">   -297.25980560 </i>
    <i name="e_wo_entrp">   -297.25980560 </i>
    <i name="e_0_energy">   -297.25980560 </i>
   </energy>
  </scstep>
  <scstep>
   <time name="dav">   81.50   81.55</time>
   <time name="total">   82.33   82.39</time>
   <energy>
    <i name="e_fr_energy">   -297.25971965 </i>
    <i name="e_wo_entrp">   -297.25971965 </i>
    <i name="e_0_energy">   -297.25971965 </i>
   </energy>
  </scstep>
  <scstep>
   <time name="dav">   83.80   83.84</time>
   <time name="total">   84.63   84.68</time>
   <energy>
    <i name="e_fr_energy">   -297.25969934 </i>
    <i name="e_wo_entrp">   -297.25969934 </i>
    <i name="e_0_energy">   -297.25969934 </i>
   </energy>
  </scstep>
  <scstep>
   <time name="dav">   66.10   66.33</time>
   <time name="total">   66.93   67.17</time>
   <energy>
    <i name="e_fr_energy">   -297.25970174 </i>
    <i name="e_wo_entrp">   -297.25970174 </i>
    <i name="e_0_energy">   -297.25970174 </i>
   </energy>
  </scstep>
  <scstep>
   <time name="dav">   69.99   70.26</time>
   <time name="total">   70.82   71.10</time>
   <energy>
    <i name="e_fr_energy">   -297.25970316 </i>
    <i name="e_wo_entrp">   -297.25970316 </i>
    <i name="e_0_energy">   -297.25970316 </i>
   </energy>
  </scstep>
  <scstep>
   <time name="dav">   61.46   61.50</time>
   <time name="total">   62.29   62.33</time>
   <energy>
    <i name="e_fr_energy">   -297.25970477 </i>
    <i name="e_wo_entrp">   -297.25970477 </i>
    <i name="e_0_energy">   -297.25970477 </i>
   </energy>
  </scstep>
  <scstep>
   <time name="dav">   51.35   51.38</time>
   <time name="total">   51.42   51.46</time>
   <energy>
    <i name="alphaZ">   1079.27321875 </i>
    <i name="ewald"> -31042.73051833 </i>
    <i name="hartreedc"> -12803.38633198 </i>
    <i name="XCdc">   1418.90743802 </i>
    <i name="pawpsdc">  43834.97340085 </i>
    <i name="pawaedc"> -43311.18011345 </i>
    <i name="eentropy">      0.00000000 </i>
    <i name="bandstr">  -4264.17866888 </i>
    <i name="atom">  44791.06186932 </i>
    <i name="e_fr_energy">   -297.25970571 </i>
    <i name="e_wo_entrp">   -297.25970571 </i>
    <i name="e_0_energy">   -297.25970571 </i>
   </energy>
  </scstep>
  <structure>
   <crystal>
    <varray name="basis" >
     <v>      11.18181720       0.00415122      -0.00172486 </v>
     <v>       0.00354110       9.52510499       0.00041192 </v>
     <v>      -0.00172446       0.00048892      11.17725944 </v>
    </varray>
    <i name="volume">   1190.46716127 </i>
    <varray name="rec_basis" >
     <v>       0.08943092      -0.00003325       0.00001380 </v>
     <v>      -0.00003898       0.10498573      -0.00000460 </v>
     <v>       0.00001380      -0.00000387       0.08946737 </v>
    </varray>
   </crystal>
   <varray name="positions" >
    <v>       0.37209217       0.00059744       0.43303961 </v>
    <v>       0.37357742       0.00056968       0.18868113 </v>
    <v>       0.62417951       0.00049335       0.43142231 </v>
    <v>       0.87869618      -0.00031310       0.42940690 </v>
    <v>       0.87576715      -0.00033473       0.19236919 </v>
    <v>       0.12976809       0.00043531       0.94543374 </v>
    <v>       0.37592577      -0.00049023       0.94064171 </v>
    <v>       0.37736908      -0.00041993       0.68539974 </v>
    <v>       0.62070147       0.99913843       0.94219622 </v>
    <v>       0.61994549       0.99921663       0.68611045 </v>
    <v>       0.13209060       0.00098750       0.67916748 </v>
    <v>       0.87435880       0.00086559       0.94642364 </v>
    <v>       0.87001684       0.00085035       0.68048799 </v>
    <v>       0.00309679       0.29620922       0.06822297 </v>
    <v>       0.25043137       0.70719472       0.06718260 </v>
    <v>       0.24882277       0.29205919       0.31161452 </v>
    <v>       0.49955225       0.70646054       0.31079125 </v>
    <v>       0.49967427       0.29287510       0.06680843 </v>
    <v>       0.74714407       0.70386872       0.06778547 </v>
    <v>       0.74791054       0.29322841       0.31090056 </v>
    <v>       0.00330152       0.70856789       0.31169421 </v>
    <v>       0.00226658       0.30178274       0.55605892 </v>
    <v>       0.25120492       0.70335154       0.55722831 </v>
    <v>       0.25236234       0.30198060       0.81503658 </v>
[...]
       <r>    8.9040    0.0000 </r>
       <r>    8.9268    0.0000 </r>
       <r>    9.0040    0.0000 </r>
       <r>    9.0249    0.0000 </r>
       <r>    9.0878    0.0000 </r>
      </set>
     </set>
    </set>
   </array>
  </eigenvalues>
  <separator name="orbital magnetization" >
   <v name="MAGDIPOLOUT">      0.00000000      0.00000000      0.00000000</v>
  </separator>
  <dos>
   <i name="efermi">      4.39511478 </i>
   <total>
    <array>
     <dimension dim="1">gridpoints</dimension>
     <dimension dim="2">spin</dimension>
     <field>energy</field>
     <field>total</field>
     <field>integrated</field>
     <set>
      <set comment="spin 1">
       <r>   -42.6668     0.0000     0.0000 </r>
       <r>   -42.4845     0.0000     0.0000 </r>
       <r>   -42.3023     0.0000     0.0000 </r>
       <r>   -42.1201     0.0000     0.0000 </r>
       <r>   -41.9378     0.0000     0.0000 </r>
       <r>   -41.7556     0.0000     0.0000 </r>
       <r>   -41.5734     0.0000     0.0000 </r>
       <r>   -41.3911     0.0000     0.0000 </r>
       <r>   -41.2089     0.0000     0.0000 </r>
       <r>   -41.0267     0.0000     0.0000 </r>
       <r>   -40.8444     0.0000     0.0000 </r>
       <r>   -40.6622     0.0000     0.0000 </r>
       <r>   -40.4800     0.0000     0.0000 </r>
       <r>   -40.2977     0.0000     0.0000 </r>
       <r>   -40.1155     0.0000     2.0000 </r>
       <r>   -39.9333     0.0000     2.0000 </r>
       <r>   -39.7510     0.0000     4.0000 </r>
       <r>   -39.5688     0.0000     6.0000 </r>
       <r>   -39.3866     0.0000    14.0000 </r>
       <r>   -39.2043     0.0000    18.0000 </r>
       <r>   -39.0221     0.0000    18.0000 </r>
       <r>   -38.8399     0.0000    20.0000 </r>
       <r>   -38.6576     0.0000    20.0000 </r>
       <r>   -38.4754     0.0000    20.0000 </r>
       <r>   -38.2932     0.0000    20.0000 </r>
       <r>   -38.1109     0.0000    20.0000 </r>
       <r>   -37.9287     0.0000    20.0000 </r>
       <r>   -37.7465     0.0000    20.0000 </r>
       <r>   -37.5642     0.0000    20.0000 </r>
       <r>   -37.3820     0.0000    20.0000 </r>
       <r>   -37.1998     0.0000    20.0000 </r>
       <r>   -37.0175     0.0000    20.0000 </r>
       <r>   -36.8353     0.0000    20.0000 </r>
       <r>   -36.6531     0.0000    20.0000 </r>
       <r>   -36.4708     0.0000    20.0000 </r>
       <r>   -36.2886     0.0000    20.0000 </r>
       <r>   -36.1064     0.0000    20.0000 </r>
       <r>   -35.9241     0.0000    20.0000 </r>
       <r>   -35.7419     0.0000    20.0000 </r>
       <r>   -35.5597     0.0000    20.0000 </r>
       <r>   -35.3774     0.0000    20.0000 </r>
       <r>   -35.1952     0.0000    20.0000 </r>
       <r>   -35.0130     0.0000    20.0000 </r>
       <r>   -34.8307     0.0000    20.0000 </r>
       <r>   -34.6485     0.0000    20.0000 </r>
       <r>   -34.4663     0.0000    20.0000 </r>
       <r>   -34.2840     0.0000    20.0000 </r>
       <r>   -34.1018     0.0000    20.0000 </r>
       <r>   -33.9196     0.0000    20.0000 </r>
       <r>   -33.7373     0.0000    20.0000 </r>
       <r>   -33.5551     0.0000    20.0000 </r>
       <r>   -33.3729     0.0000    20.0000 </r>
       <r>   -33.1906     0.0000    20.0000 </r>
       <r>   -33.0084     0.0000    20.0000 </r>
       <r>   -32.8262     0.0000    20.0000 </r>
       <r>   -32.6439     0.0000    20.0000 </r>
       <r>   -32.4617     0.0000    20.0000 </r>
       <r>   -32.2794     0.0000    20.0000 </r>
       <r>   -32.0972     0.0000    20.0000 </r>
       <r>   -31.9150     0.0000    20.0000 </r>
       <r>   -31.7327     0.0000    20.0000 </r>
       <r>   -31.5505     0.0000    20.0000 </r>
       <r>   -31.3683     0.0000    20.0000 </r>
       <r>   -31.1860     0.0000    20.0000 </r>
       <r>   -31.0038     0.0000    20.0000 </r>
       <r>   -30.8216     0.0000    20.0000 </r>
       <r>   -30.6393     0.0000    20.0000 </r>
       <r>   -30.4571     0.0000    20.0000 </r>
       <r>   -30.2749     0.0000    20.0000 </r>
       <r>   -30.0926     0.0000    20.0000 </r>
       <r>   -29.9104     0.0000    20.0000 </r>
       <r>   -29.7282     0.0000    20.0000 </r>
       <r>   -29.5459     0.0000    20.0000 </r>
       <r>   -29.3637     0.0000    20.0000 </r>
       <r>   -29.1815     0.0000    20.0000 </r>
       <r>   -28.9992     0.0000    20.0000 </r>
       <r>   -28.8170     0.0000    20.0000 </r>
       <r>   -28.6348     0.0000    20.0000 </r>
       <r>   -28.4525     0.0000    20.0000 </r>
       <r>   -28.2703     0.0000    20.0000 </r>
       <r>   -28.0881     0.0000    20.0000 </r>
       <r>   -27.9058     0.0000    20.0000 </r>
       <r>   -27.7236     0.0000    20.0000 </r>
       <r>   -27.5414     0.0000    20.0000 </r>
       <r>   -27.3591     0.0000    20.0000 </r>
       <r>   -27.1769     0.0000    20.0000 </r>
       <r>   -26.9947     0.0000    20.0000 </r>
       <r>   -26.8124     0.0000    20.0000 </r>
       <r>   -26.6302     0.0000    20.0000 </r>
       <r>   -26.4480     0.0000    20.0000 </r>
       <r>   -26.2657     0.0000    20.0000 </r>
       <r>   -26.0835     0.0000    20.0000 </r>
       <r>   -25.9013     0.0000    20.0000 </r>
       <r>   -25.7190     0.0000    20.0000 </r>
       <r>   -25.5368     0.0000    20.0000 </r>
       <r>   -25.3546     0.0000    20.0000 </r>
       <r>   -25.1723     0.0000    20.0000 </r>
       <r>   -24.9901     0.0000    20.0000 </r>
       <r>   -24.8079     0.0000    20.0000 </r>
       <r>   -24.6256     0.0000    20.0000 </r>
       <r>   -24.4434     0.0000    20.0000 </r>
       <r>   -24.2612     0.0000    20.0000 </r>
       <r>   -24.0789     0.0000    20.0000 </r>
       <r>   -23.8967     0.0000    20.0000 </r>
       <r>   -23.7145     0.0000    20.0000 </r>
       <r>   -23.5322     0.0000    20.0000 </r>
       <r>   -23.3500     0.0000    20.0000 </r>
       <r>   -23.1678     0.0000    20.0000 </r>
       <r>   -22.9855     0.0000    20.0000 </r>
       <r>   -22.8033     0.0000    20.0000 </r>
       <r>   -22.6211     0.0000    20.0000 </r>
       <r>   -22.4388     0.0000    20.0000 </r>
       <r>   -22.2566     0.0000    20.0000 </r>
       <r>   -22.0744     0.0000    20.0000 </r>
       <r>   -21.8921     0.0000    20.0000 </r>
       <r>   -21.7099     0.0000    20.0000 </r>
       <r>   -21.5277     0.0000    20.0000 </r>
       <r>   -21.3454     0.0000    20.0000 </r>
       <r>   -21.1632     0.0000    20.0000 </r>
       <r>   -20.9809     0.0000    20.0000 </r>
       <r>   -20.7987     0.0000    20.0000 </r>
       <r>   -20.6165     0.0000    20.0000 </r>
       <r>   -20.4342     0.0000    20.0000 </r>
       <r>   -20.2520     0.0000    20.0000 </r>
       <r>   -20.0698     0.0000    20.0000 </r>
       <r>   -19.8875     0.0000    20.0000 </r>
       <r>   -19.7053     0.0000    20.0000 </r>
       <r>   -19.5231     0.0000    20.0000 </r>
       <r>   -19.3408     0.0000    20.0000 </r>
       <r>   -19.1586     0.0000    20.0000 </r>
       <r>   -18.9764     0.0000    20.0000 </r>
       <r>   -18.7941     0.0000    20.0000 </r>
       <r>   -18.6119     0.0000    56.0000 </r>
       <r>   -18.4297     0.0000   120.0000 </r>
       <r>   -18.2474     0.0000   164.0000 </r>
       <r>   -18.0652     0.0000   180.0000 </r>
       <r>   -17.8830     0.0000   180.0000 </r>
       <r>   -17.7007     0.0000   180.0000 </r>
       <r>   -17.5185     0.0000   180.0000 </r>
       <r>   -17.3363     0.0000   180.0000 </r>
       <r>   -17.1540     0.0000   180.0000 </r>
       <r>   -16.9718     0.0000   180.0000 </r>
       <r>   -16.7896     0.0000   180.0000 </r>
       <r>   -16.6073     0.0000   180.0000 </r>
       <r>   -16.4251     0.0000   180.0000 </r>
       <r>   -16.2429     0.0000   180.0000 </r>
       <r>   -16.0606     0.0000   180.0000 </r>
       <r>   -15.8784     0.0000   180.0000 </r>
       <r>   -15.6962     0.0000   180.0000 </r>
       <r>   -15.5139     0.0000   180.0000 </r>
       <r>   -15.3317     0.0000   180.0000 </r>
       <r>   -15.1495     0.0000   180.0000 </r>
       <r>   -14.9672     0.0000   180.0000 </r>
       <r>   -14.7850     0.0000   180.0000 </r>
       <r>   -14.6028     0.0000   180.0000 </r>
       <r>   -14.4205     0.0000   180.0000 </r>
       <r>   -14.2383     0.0000   180.0000 </r>
       <r>   -14.0561     0.0000   180.0000 </r>
       <r>   -13.8738     0.0000   180.0000 </r>
       <r>   -13.6916     0.0000   180.0000 </r>
       <r>   -13.5094     0.0000   180.0000 </r>
       <r>   -13.3271     0.0000   182.0000 </r>
       <r>   -13.1449     0.0000   182.0000 </r>
       <r>   -12.9627     0.0000   184.0000 </r>
       <r>   -12.7804   475.7806   188.6332 </r>
       <r>   -12.5982     0.0000   194.0000 </r>
       <r>   -12.4160     0.0000   204.0000 </r>
       <r>   -12.2337     0.0000   210.0000 </r>
       <r>   -12.0515     0.0000   212.0000 </r>
       <r>   -11.8693     0.0000   212.0000 </r>
       <r>   -11.6870     0.0000   212.0000 </r>
       <r>   -11.5048     0.0000   212.0000 </r>
       <r>   -11.3226     0.0000   212.0000 </r>
       <r>   -11.1403     0.0000   212.0000 </r>
       <r>   -10.9581     0.0000   212.0000 </r>
       <r>   -10.7759     0.0000   212.0000 </r>
       <r>   -10.5936     0.0000   212.0000 </r>
       <r>   -10.4114     0.0000   212.0000 </r>
       <r>   -10.2292     0.0000   212.0000 </r>
       <r>   -10.0469     0.0000   212.0000 </r>
       <r>    -9.8647     0.0000   212.0000 </r>
       <r>    -9.6825     0.0000   212.0000 </r>
       <r>    -9.5002     0.0000   212.0000 </r>
       <r>    -9.3180     9.5647   212.3423 </r>
       <r>    -9.1357     0.0000   214.0000 </r>
       <r>    -8.9535    11.9320   215.4498 </r>
       <r>    -8.7713    10.0485   216.4111 </r>
       <r>    -8.5890    14.2518   219.8148 </r>
       <r>    -8.4068    16.6015   223.9355 </r>
       <r>    -8.2246    16.1402   227.2612 </r>
       <r>    -8.0423    28.1626   228.5317 </r>
       <r>    -7.8601    30.4193   235.4230 </r>
       <r>    -7.6779    11.8032   239.9670 </r>
       <r>    -7.4956    24.0429   242.3166 </r>
       <r>    -7.3134     0.0000   244.0000 </r>
       <r>    -7.1312     0.0000   244.0000 </r>
       <r>    -6.9489     0.0000   244.0000 </r>
       <r>    -6.7667     0.0000   244.0000 </r>
       <r>    -6.5845     0.0000   244.0000 </r>
       <r>    -6.4022     0.0000   244.0000 </r>
       <r>    -6.2200     6.8728   244.1641 </r>
       <r>    -6.0378    27.7062   248.3597 </r>
       <r>    -5.8555    18.1183   251.3034 </r>
       <r>    -5.6733    19.2303   254.1355 </r>
       <r>    -5.4911    25.8481   259.3521 </r>
       <r>    -5.3088    20.9117   263.4036 </r>
       <r>    -5.1266    12.4459   266.5369 </r>
       <r>    -4.9444     0.5588   268.0034 </r>
       <r>    -4.7621    10.9053   269.0995 </r>
       <r>    -4.5799     8.1721   271.2663 </r>
       <r>    -4.3977     3.8841   272.4752 </r>
       <r>    -4.2154     6.8832   273.4564 </r>
       <r>    -4.0332     6.7685   274.9818 </r>
       <r>    -3.8510     2.2311   275.6558 </r>
       <r>    -3.6687     0.9024   275.9412 </r>
       <r>    -3.4865     0.0000   276.0000 </r>
       <r>    -3.3043     0.0000   276.0000 </r>
       <r>    -3.1220     0.0000   276.0000 </r>
       <r>    -2.9398     0.0000   276.0000 </r>
       <r>    -2.7576     0.0000   276.0000 </r>
       <r>    -2.5753     0.0000   276.0000 </r>
       <r>    -2.3931     0.0000   276.0000 </r>
       <r>    -2.2109     0.0000   276.0000 </r>
       <r>    -2.0286     0.0000   276.0000 </r>
       <r>    -1.8464     0.0000   276.0000 </r>
       <r>    -1.6642     0.0000   276.0000 </r>
       <r>    -1.4819     0.0000   276.0000 </r>
       <r>    -1.2997     0.6903   276.0083 </r>
       <r>    -1.1175     6.6435   277.0106 </r>
       <r>    -0.9352     6.3723   278.3152 </r>
       <r>    -0.7530    12.9772   279.8931 </r>
       <r>    -0.5708    11.0768   282.1640 </r>
       <r>    -0.3885    19.2625   284.1279 </r>
       <r>    -0.2063    24.0200   288.4628 </r>
       <r>    -0.0241    27.9997   293.1187 </r>
       <r>     0.1582    40.0792   299.7806 </r>
       <r>     0.3404    39.3708   306.4209 </r>
       <r>     0.5226    35.2592   313.6424 </r>
       <r>     0.7049    38.5656   319.4478 </r>
       <r>     0.8871    40.6551   326.3482 </r>
       <r>     1.0693    39.5698   333.0144 </r>
       <r>     1.2516    41.8549   340.7327 </r>
       <r>     1.4338    53.8082   349.8042 </r>
       <r>     1.6160    46.7218   357.5656 </r>
       <r>     1.7983    39.9370   366.3507 </r>
       <r>     1.9805    44.9297   374.2337 </r>
       <r>     2.1628    51.1330   382.7919 </r>
       <r>     2.3450    51.1573   391.9902 </r>
       <r>     2.5272    67.1577   402.2621 </r>
       <r>     2.7095    59.0167   414.7367 </r>
       <r>     2.8917    62.0323   425.2780 </r>
       <r>     3.0739    62.0688   437.7460 </r>
       <r>     3.2562    50.5409   448.3319 </r>
       <r>     3.4384    24.9431   453.8472 </r>
       <r>     3.6206    46.1048   460.9155 </r>
       <r>     3.8029    15.0479   464.5465 </r>
       <r>     3.9851     9.0332   466.7406 </r>
       <r>     4.1673     3.0218   467.8390 </r>
       <r>     4.3496     0.0000   468.0000 </r>
       <r>     4.5318     0.0000   468.0000 </r>
       <r>     4.7140     0.0000   468.0000 </r>
       <r>     4.8963     0.0000   468.0000 </r>
       <r>     5.0785     0.0000   468.0000 </r>
       <r>     5.2607     0.2226   468.0029 </r>
       <r>     5.4430     5.4364   468.4732 </r>
       <r>     5.6252    10.5063   469.9896 </r>
       <r>     5.8074     9.1900   471.8092 </r>
       <r>     5.9897    24.0604   475.3332 </r>
       <r>     6.1719    13.2624   478.3210 </r>
       <r>     6.3541    12.6605   480.6734 </r>
       <r>     6.5364    13.8439   483.0602 </r>
       <r>     6.7186    15.5304   485.7405 </r>
       <r>     6.9008    17.2153   488.7164 </r>
       <r>     7.0831    20.4324   492.1082 </r>
       <r>     7.2653    25.5456   496.3069 </r>
       <r>     7.4475    28.5880   501.1265 </r>
       <r>     7.6298    27.5234   507.0258 </r>
       <r>     7.8120    33.3821   513.0717 </r>
       <r>     7.9942    33.0328   519.0127 </r>
       <r>     8.1765    35.8890   525.3087 </r>
       <r>     8.3587    28.7283   531.3417 </r>
       <r>     8.5409    23.4044   535.8635 </r>
       <r>     8.7232    27.8865   540.5149 </r>
       <r>     8.9054    38.7138   546.2581 </r>
       <r>     9.0876    33.6993   553.2351 </r>
       <r>     9.2699    19.9716   558.1087 </r>
       <r>     9.4521     2.2932   559.9323 </r>
       <r>     9.6343     0.0000   560.0000 </r>
       <r>     9.8166     0.0000   560.0000 </r>
       <r>     9.9988     0.0000   560.0000 </r>
       <r>    10.1810     0.0000   560.0000 </r>
       <r>    10.3633     0.0000   560.0000 </r>
       <r>    10.5455     0.0000   560.0000 </r>
       <r>    10.7277     0.0000   560.0000 </r>
       <r>    10.9100     0.0000   560.0000 </r>
       <r>    11.0922     0.0000   560.0000 </r>
       <r>    11.2744     0.0000   560.0000 </r>
       <r>    11.4567     0.0000   560.0000 </r>
       <r>    11.6389     0.0000   560.0000 </r>
       <r>    11.8211     0.0000   560.0000 </r>
       <r>    12.0034     0.0000   560.0000 </r>
      </set>
     </set>
    </array>
   </total>
  </dos>
 </calculation>
 <structure name="finalpos" >
  <crystal>
   <varray name="basis" >
    <v>      11.19328056       0.02567104      -0.00640648 </v>
    <v>       0.02250459       9.49389220       0.08866726 </v>
    <v>      -0.00556518       0.10538054      11.19038764 </v>
   </varray>
   <i name="volume">   1189.06644568 </i>
   <varray name="rec_basis" >
    <v>       0.08933983      -0.00021221       0.00004643 </v>
    <v>      -0.00024216       0.10534072      -0.00099212 </v>
    <v>       0.00005307      -0.00083479       0.08937030 </v>
   </varray>
  </crystal>
  <varray name="positions" >
   <v>       0.34980115      -0.00194955       0.42999716 </v>
   <v>       0.37194490      -0.00208953       0.18810819 </v>
   <v>       0.60617906       0.01200500       0.40949479 </v>
   <v>       0.98350575       0.03884678       0.40713999 </v>
   <v>       0.82262369      -0.03527160       0.21762297 </v>
   <v>       0.11541891      -0.00659811       0.15839312 </v>
   <v>       0.34121779       0.00973647       0.94334696 </v>
   <v>       0.38018027       0.00211228       0.68490526 </v>
   <v>       0.59698763       0.97085868       0.96386732 </v>
   <v>       0.60601699       0.98596330       0.67369330 </v>
   <v>       0.13026193       0.00233838       0.69077843 </v>
   <v>       0.88889936      -0.00341946       0.93378775 </v>
   <v>       0.86611466       0.00709968       0.67128326 </v>
   <v>       0.00260708       0.30202046       0.05942482 </v>
   <v>       0.25386990       0.69964313       0.06292925 </v>
   <v>       0.25447230       0.30079083       0.30544185 </v>
   <v>       0.49637968       0.70517534       0.30993261 </v>
   <v>       0.49789423       0.28814619       0.05870590 </v>
   <v>       0.75163925       0.68680479       0.05748485 </v>
   <v>       0.74839099       0.29761373       0.31060472 </v>
   <v>       0.00091325       0.70164547       0.30157239 </v>
   <v>       0.00379531       0.32201921       0.55975002 </v>
   <v>       0.25297415       0.69882615       0.56045513 </v>
   <v>       0.25738797       0.30892282       0.80754422 </v>
   <v>       0.50169406       0.69567419       0.80870018 </v>
   <v>       0.50099607       0.30029710       0.55810215 </v>
   <v>       0.74752709       0.69473224       0.55842871 </v>
   <v>       0.75550600       0.31584848       0.81182010 </v>
   <v>       0.00236345       0.68297569       0.80623132 </v>
   <v>       0.25501408       0.35029569       0.05907566 </v>
   <v>       0.00224883       0.65528078       0.05386593 </v>
   <v>       0.50291753       0.34565773       0.31358049 </v>
   <v>       0.24770414       0.65281690       0.30818197 </v>
   <v>       0.75540309       0.33456432       0.05993186 </v>
   <v>       0.50475737       0.66728302       0.05490542 </v>
   <v>       0.00152582       0.30810182       0.31746071 </v>
   <v>       0.74997982       0.69464570       0.30523769 </v>
   <v>       0.25284767       0.35072302       0.56239846 </v>
   <v>       0.00208121       0.66466272       0.55644816 </v>
   <v>       0.50484288       0.34156777       0.81267196 </v>
   <v>       0.25063558       0.65899261       0.80574642 </v>
   <v>       0.75602748       0.34121524       0.56343369 </v>
   <v>       0.50279003       0.64929195       0.55756139 </v>
   <v>       0.00546273       0.35802735       0.81223581 </v>
   <v>       0.75414543       0.64439771       0.80617771 </v>
   <v>       0.47482477       0.07610054       0.04578349 </v>
   <v>       0.25448186       0.91393072       0.07221499 </v>
   <v>       0.25953285       0.08734441       0.29841250 </v>
   <v>      -0.00705309       0.91575803       0.27996745 </v>
   <v>      -0.00166757       0.08699122       0.04530911 </v>
   <v>       0.76262837       0.90615170       0.03569885 </v>
   <v>       0.74541331       0.08517438       0.32621128 </v>
   <v>       0.47505812       0.91697562       0.32622187 </v>
   <v>       0.49643786       0.08182094       0.55939830 </v>
   <v>       0.25294845       0.91761111       0.58042919 </v>
   <v>       0.25581701       0.08849563       0.79362475 </v>
   <v>      -0.01219026       0.91376094       0.78857743 </v>
   <v>       0.00273273       0.09356222       0.58040774 </v>
   <v>       0.73986161       0.91045819       0.58574900 </v>
   <v>       0.78444819       0.09399312       0.80872985 </v>
   <v>       0.50616924       0.91413875       0.80427414 </v>
  </varray>
 </structure>
</modeling>
