<?xml version="1.0" encoding="ISO-8859-1"?>
<modeling>
 <generator>
  <i name="program" type="string">vasp </i>
  <i name="version" type="string">5.4.4.18Apr17-6-g9f103f2a35  </i>
  <i name="subversion" type="string">(build Jul 31 2017 11:33:29) complex            parallel </i>
  <i name="platform" type="string">LinuxIFC </i>
  <i name="date" type="string">2021 09 20 </i>
  <i name="time" type="string">19:41:23 </i>
 </generator>
 <incar>
  <i type="string" name="SYSTEM"> La2O2S</i>
  <i type="string" name="PREC">normal</i>
  <i type="int" name="NELMIN">     4</i>
  <i type="int" name="IBRION">     2</i>
  <i type="int" name="NFREE">    10</i>
  <i name="EDIFF">      0.00000100</i>
  <i name="EDIFFG">     -0.01000000</i>
  <i type="int" name="NSW">   200</i>
  <i type="int" name="ISIF">     3</i>
  <i name="ENCUT">    600.00000000</i>
  <i name="ENAUG">    900.00000000</i>
  <i type="int" name="ISMEAR">    -5</i>
  <i type="logical" name="LWAVE"> F  </i>
  <i type="logical" name="LCHARG"> F  </i>
  <v type="int" name="KPOINT_BSE">    -1     0     0     0</v>
 </incar>
 <structure name="primitive_cell" >
  <crystal>
   <varray name="basis" >
    <v>      11.17850000       0.00000000       0.00000000 </v>
    <v>       0.00000000       9.57460000       0.00000000 </v>
    <v>       0.00000000       0.00000000      11.18240000 </v>
   </varray>
   <i name="volume">   1196.84853820 </i>
   <varray name="rec_basis" >
    <v>       0.08945744       0.00000000       0.00000000 </v>
    <v>       0.00000000       0.10444301       0.00000000 </v>
    <v>       0.00000000       0.00000000       0.08942624 </v>
   </varray>
  </crystal>
  <varray name="positions" >
   <v>       0.12461000      -0.00016000       0.18687000 </v>
   <v>      -0.00013000       0.07798000       0.06246000 </v>
   <v>       0.24987000      -0.07798000       0.06246000 </v>
   <v>       0.00013000      -0.07798000       0.31246000 </v>
   <v>       0.25013000       0.07798000       0.31246000 </v>
   <v>      -0.12539000       0.00017000       0.18687000 </v>
   <v>       0.37461000       0.00017000       0.18687000 </v>
   <v>       0.00013000       0.29519000       0.06281000 </v>
   <v>       0.25013000      -0.29519000       0.06281000 </v>
   <v>      -0.00013000      -0.29519000       0.31282000 </v>
   <v>       0.24987000       0.29519000       0.31282000 </v>
   <v>       0.00005000      -0.32677000       0.06286000 </v>
   <v>       0.25005000       0.32677000       0.06286000 </v>
   <v>      -0.00005000       0.32677000       0.31286000 </v>
   <v>       0.24995000      -0.32677000       0.31286000 </v>
   <v>      -0.12461000       0.00017000       0.43687000 </v>
   <v>      -0.12461000       0.00017000      -0.06313000 </v>
   <v>       0.37539000       0.00017000      -0.06313000 </v>
   <v>       0.00013000      -0.07798000      -0.18754000 </v>
   <v>      -0.25013000      -0.07798000       0.06246000 </v>
   <v>      -0.24987000       0.07798000       0.31246000 </v>
   <v>       0.25013000       0.07798000      -0.18754000 </v>
   <v>       0.49987000       0.07798000       0.06246000 </v>
   <v>      -0.00013000       0.07798000      -0.43754000 </v>
   <v>      -0.49987000      -0.07798000       0.31246000 </v>
   <v>       0.24987000      -0.07798000      -0.43754000 </v>
   <v>      -0.00013000      -0.29519000      -0.18718000 </v>
   <v>      -0.24987000      -0.29519000       0.06281000 </v>
   <v>       0.24987000       0.29519000      -0.18718000 </v>
   <v>      -0.25013000       0.29519000       0.31282000 </v>
   <v>      -0.49987000       0.29519000       0.06281000 </v>
   <v>       0.49987000      -0.29519000       0.31282000 </v>
   <v>       0.00013000       0.29519000      -0.43719000 </v>
   <v>       0.25013000      -0.29519000      -0.43719000 </v>
   <v>      -0.00005000       0.32677000      -0.18714000 </v>
   <v>       0.24995000      -0.32677000      -0.18714000 </v>
   <v>      -0.24995000       0.32677000       0.06286000 </v>
   <v>      -0.25005000      -0.32677000       0.31286000 </v>
   <v>      -0.49995000      -0.32677000       0.06286000 </v>
   <v>       0.49995000       0.32677000       0.31286000 </v>
   <v>       0.00005000      -0.32677000      -0.43714000 </v>
   <v>       0.25005000       0.32677000      -0.43714000 </v>
   <v>       0.12461000      -0.00016000      -0.31313000 </v>
   <v>      -0.24987000       0.07798000      -0.18754000 </v>
   <v>      -0.49987000      -0.07798000      -0.18754000 </v>
   <v>      -0.25013000      -0.07798000      -0.43754000 </v>
   <v>       0.49987000       0.07798000      -0.43754000 </v>
   <v>      -0.37461000      -0.00016000      -0.06313000 </v>
   <v>      -0.37461000      -0.00016000       0.43687000 </v>
   <v>       0.37461000       0.00017000      -0.31313000 </v>
   <v>      -0.25013000       0.29519000      -0.18718000 </v>
   <v>       0.49987000      -0.29519000      -0.18718000 </v>
   <v>      -0.24987000      -0.29519000      -0.43719000 </v>
   <v>      -0.49987000       0.29519000      -0.43719000 </v>
   <v>      -0.25005000      -0.32677000      -0.18714000 </v>
   <v>       0.49995000       0.32677000      -0.18714000 </v>
   <v>      -0.24995000       0.32677000      -0.43714000 </v>
   <v>      -0.49995000      -0.32677000      -0.43714000 </v>
   <v>      -0.37539000      -0.00016000      -0.31313000 </v>
  </varray>
 </structure>
 <varray name="primitive_index" >
  <v type="int" >        1 </v>
  <v type="int" >       48 </v>
  <v type="int" >       45 </v>
  <v type="int" >       47 </v>
  <v type="int" >       46 </v>
  <v type="int" >        3 </v>
  <v type="int" >        7 </v>
  <v type="int" >       12 </v>
  <v type="int" >       13 </v>
  <v type="int" >       19 </v>
  <v type="int" >       14 </v>
  <v type="int" >       29 </v>
  <v type="int" >       28 </v>
  <v type="int" >       34 </v>
  <v type="int" >       31 </v>
  <v type="int" >        2 </v>
  <v type="int" >       10 </v>
  <v type="int" >        9 </v>
  <v type="int" >       55 </v>
  <v type="int" >       49 </v>
  <v type="int" >       50 </v>
  <v type="int" >       54 </v>
  <v type="int" >       44 </v>
  <v type="int" >       56 </v>
  <v type="int" >       51 </v>
  <v type="int" >       53 </v>
  <v type="int" >       27 </v>
  <v type="int" >       17 </v>
  <v type="int" >       22 </v>
  <v type="int" >       18 </v>
  <v type="int" >       16 </v>
  <v type="int" >       15 </v>
  <v type="int" >       20 </v>
  <v type="int" >       21 </v>
  <v type="int" >       42 </v>
  <v type="int" >       39 </v>
  <v type="int" >       32 </v>
  <v type="int" >       35 </v>
  <v type="int" >       33 </v>
  <v type="int" >       30 </v>
  <v type="int" >       37 </v>
  <v type="int" >       36 </v>
  <v type="int" >        4 </v>
  <v type="int" >       58 </v>
  <v type="int" >       59 </v>
  <v type="int" >       57 </v>
  <v type="int" >       52 </v>
  <v type="int" >        6 </v>
  <v type="int" >        8 </v>
  <v type="int" >        5 </v>
  <v type="int" >       26 </v>
  <v type="int" >       23 </v>
  <v type="int" >       25 </v>
  <v type="int" >       24 </v>
  <v type="int" >       43 </v>
  <v type="int" >       38 </v>
  <v type="int" >       40 </v>
  <v type="int" >       41 </v>
  <v type="int" >       11 </v>
 </varray>
 <kpoints>
  <generation param="Gamma">
   <v type="int" name="divisions">       2        2        2 </v>
   <v name="usershift">      0.00000000       0.00000000       0.00000000 </v>
   <v name="genvec1">      0.50000000       0.00000000       0.00000000 </v>
   <v name="genvec2">      0.00000000       0.50000000       0.00000000 </v>
   <v name="genvec3">      0.00000000       0.00000000       0.50000000 </v>
   <v name="shift">      0.00000000       0.00000000       0.00000000 </v>
  </generation>
  <varray name="kpointlist" >
   <v>       0.00000000       0.00000000       0.00000000 </v>
   <v>       0.50000000       0.00000000       0.00000000 </v>
   <v>       0.00000000       0.50000000       0.00000000 </v>
   <v>       0.50000000       0.50000000       0.00000000 </v>
   <v>       0.00000000       0.00000000       0.50000000 </v>
   <v>       0.50000000       0.00000000       0.50000000 </v>
   <v>       0.00000000       0.50000000       0.50000000 </v>
   <v>       0.50000000       0.50000000       0.50000000 </v>
  </varray>
  <varray name="weights" >
   <v>       0.12500000 </v>
   <v>       0.12500000 </v>
   <v>       0.12500000 </v>
   <v>       0.12500000 </v>
   <v>       0.12500000 </v>
   <v>       0.12500000 </v>
   <v>       0.12500000 </v>
   <v>       0.12500000 </v>
  </varray>
  <varray name="tetrahedronlist"  type="int" >
   <v type="int" >        2        1        2        4        5 </v>
   <v type="int" >        2        1        3        4        5 </v>
   <v type="int" >        2        3        4        5        7 </v>
   <v type="int" >        2        2        4        5        6 </v>
   <v type="int" >        2        4        5        6        8 </v>
   <v type="int" >        2        4        5        7        8 </v>
   <v type="int" >        2        1        2        3        6 </v>
   <v type="int" >        2        2        3        4        6 </v>
   <v type="int" >        2        3        4        6        8 </v>
   <v type="int" >        2        1        3        5        6 </v>
   <v type="int" >        2        3        5        6        7 </v>
   <v type="int" >        2        3        6        7        8 </v>
   <v type="int" >        2        2        3        4        7 </v>
   <v type="int" >        2        1        2        3        7 </v>
   <v type="int" >        2        1        2        5        7 </v>
   <v type="int" >        2        2        4        7        8 </v>
   <v type="int" >        2        2        6        7        8 </v>
   <v type="int" >        2        2        5        6        7 </v>
   <v type="int" >        2        1        3        4        8 </v>
   <v type="int" >        2        1        2        4        8 </v>
   <v type="int" >        2        1        2        6        8 </v>
   <v type="int" >        2        1        3        7        8 </v>
   <v type="int" >        2        1        5        7        8 </v>
   <v type="int" >        2        1        5        6        8 </v>
  </varray>
  <i name="volumeweight">      0.02083333 </i>
 </kpoints>
 <parameters>
  <separator name="general" >
   <i type="string" name="SYSTEM">La2O2S</i>
   <i type="logical" name="LCOMPAT"> F  </i>
  </separator>
  <separator name="electronic" >
   <i type="string" name="PREC">normal</i>
   <i name="ENMAX">    600.00000000</i>
   <i name="ENAUG">    900.00000000</i>
   <i name="EDIFF">      0.00000100</i>
   <i type="int" name="IALGO">    38</i>
   <i type="int" name="IWAVPR">    11</i>
   <i type="int" name="NBANDS">   280</i>
   <i name="NELECT">    460.00000000</i>
   <i type="int" name="TURBO">     0</i>
   <i type="int" name="IRESTART">     0</i>
   <i type="int" name="NREBOOT">     0</i>
   <i type="int" name="NMIN">     0</i>
   <i name="EREF">      0.00000000</i>
   <separator name="electronic smearing" >
    <i type="int" name="ISMEAR">    -5</i>
    <i name="SIGMA">      0.20000000</i>
    <i name="KSPACING">      0.50000000</i>
    <i type="logical" name="KGAMMA"> T  </i>
   </separator>
   <separator name="electronic projectors" >
    <i type="logical" name="LREAL"> F  </i>
    <v name="ROPT">      0.00000000      0.00000000      0.00000000      0.00000000      0.00000000</v>
    <i type="int" name="LMAXPAW">  -100</i>
    <i type="int" name="LMAXMIX">     2</i>
    <i type="logical" name="NLSPLINE"> F  </i>
   </separator>
   <separator name="electronic startup" >
    <i type="int" name="ISTART">     0</i>
    <i type="int" name="ICHARG">     2</i>
    <i type="int" name="INIWAV">     1</i>
   </separator>
   <separator name="electronic spin" >
    <i type="int" name="ISPIN">     1</i>
    <i type="logical" name="LNONCOLLINEAR"> F  </i>
    <v name="MAGMOM">      1.00000000      1.00000000      1.00000000      1.00000000      1.00000000      1.00000000      1.00000000      1.00000000      1.00000000      1.00000000      1.00000000      1.00000000      1.00000000      1.00000000      1.00000000      1.00000000      1.00000000      1.00000000      1.00000000      1.00000000
      1.00000000      1.00000000      1.00000000      1.00000000      1.00000000      1.00000000      1.00000000      1.00000000      1.00000000      1.00000000      1.00000000      1.00000000      1.00000000      1.00000000      1.00000000      1.00000000      1.00000000      1.00000000      1.00000000      1.00000000
      1.00000000      1.00000000      1.00000000      1.00000000      1.00000000      1.00000000      1.00000000      1.00000000      1.00000000      1.00000000      1.00000000      1.00000000      1.00000000      1.00000000      1.00000000      1.00000000      1.00000000      1.00000000      1.00000000</v>
    <i name="NUPDOWN">     -1.00000000</i>
    <i type="logical" name="LSORBIT"> F  </i>
    <v name="SAXIS">      0.00000000      0.00000000      1.00000000</v>
    <i type="logical" name="LSPIRAL"> F  </i>
    <v name="QSPIRAL">      0.00000000      0.00000000      0.00000000</v>
    <i type="logical" name="LZEROZ"> F  </i>
   </separator>
   <separator name="electronic exchange-correlation" >
    <i type="logical" name="LASPH"> F  </i>
    <i type="logical" name="LMETAGGA"> F  </i>
   </separator>
   <separator name="electronic convergence" >
    <i type="int" name="NELM">    60</i>
    <i type="int" name="NELMDL">    -5</i>
    <i type="int" name="NELMIN">     4</i>
    <i name="ENINI">    600.00000000</i>
    <separator name="electronic convergence detail" >
     <i type="logical" name="LDIAG"> T  </i>
     <i type="logical" name="LSUBROT"> F  </i>
     <i name="WEIMIN">      0.00100000</i>
     <i name="EBREAK">      0.00000000</i>
     <i name="DEPER">      0.30000000</i>
     <i type="int" name="NRMM">     4</i>
     <i name="TIME">      0.40000000</i>
    </separator>
   </separator>
   <separator name="electronic mixer" >
    <i name="AMIX">      0.40000000</i>
    <i name="BMIX">      1.00000000</i>
    <i name="AMIN">      0.10000000</i>
    <i name="AMIX_MAG">      1.60000000</i>
    <i name="BMIX_MAG">      1.00000000</i>
    <separator name="electronic mixer details" >
     <i type="int" name="IMIX">     4</i>
     <i type="logical" name="MIXFIRST"> F  </i>
     <i type="int" name="MAXMIX">   -45</i>
     <i name="WC">    100.00000000</i>
     <i type="int" name="INIMIX">     1</i>
     <i type="int" name="MIXPRE">     1</i>
     <i type="int" name="MREMOVE">     5</i>
    </separator>
   </separator>
   <separator name="electronic dipolcorrection" >
    <i type="logical" name="LDIPOL"> F  </i>
    <i type="logical" name="LMONO"> F  </i>
    <i type="int" name="IDIPOL">     0</i>
    <i name="EPSILON">      1.00000000</i>
    <v name="DIPOL">   -100.00000000   -100.00000000   -100.00000000</v>
    <i name="EFIELD">      0.00000000</i>
   </separator>
  </separator>
  <separator name="grids" >
   <i type="int" name="NGX">    70</i>
   <i type="int" name="NGY">    60</i>
   <i type="int" name="NGZ">    70</i>
   <i type="int" name="NGXF">   140</i>
   <i type="int" name="NGYF">   120</i>
   <i type="int" name="NGZF">   140</i>
   <i type="logical" name="ADDGRID"> F  </i>
  </separator>
  <separator name="ionic" >
   <i type="int" name="NSW">   200</i>
   <i type="int" name="IBRION">     2</i>
   <i type="int" name="MDALGO">     0</i>
   <i type="int" name="ISIF">     3</i>
   <i name="PSTRESS">      0.00000000</i>
   <i name="EDIFFG">     -0.01000000</i>
   <i type="int" name="NFREE">    10</i>
   <i name="POTIM">      0.50000000</i>
   <i name="SMASS">     -3.00000000</i>
   <i name="SCALEE">      1.00000000</i>
  </separator>
  <separator name="ionic md" >
   <i name="TEBEG">      0.00010000</i>
   <i name="TEEND">      0.00010000</i>
   <i type="int" name="NBLOCK">     1</i>
   <i type="int" name="KBLOCK">   200</i>
   <i type="int" name="NPACO">   256</i>
   <i name="APACO">     16.00000000</i>
  </separator>
  <separator name="symmetry" >
   <i type="int" name="ISYM">     2</i>
   <i name="SYMPREC">      0.00001000</i>
  </separator>
  <separator name="dos" >
   <i type="int" name="LORBIT">     0</i>
   <v name="RWIGS">     -1.00000000     -1.00000000     -1.00000000     -1.00000000     -1.00000000</v>
   <i type="int" name="NEDOS">   301</i>
   <i name="EMIN">     10.00000000</i>
   <i name="EMAX">    -10.00000000</i>
   <i name="EFERMI">      0.00000000</i>
  </separator>
  <separator name="writing" >
   <i type="int" name="NWRITE">     2</i>
   <i type="logical" name="LWAVE"> F  </i>
   <i type="logical" name="LDOWNSAMPLE"> F  </i>
   <i type="logical" name="LCHARG"> F  </i>
   <i type="logical" name="LPARD"> F  </i>
   <i type="logical" name="LVTOT"> F  </i>
   <i type="logical" name="LVHAR"> F  </i>
   <i type="logical" name="LELF"> F  </i>
   <i type="logical" name="LOPTICS"> F  </i>
   <v name="STM">      0.00000000      0.00000000      0.00000000      0.00000000      0.00000000      0.00000000      0.00000000</v>
  </separator>
  <separator name="performance" >
   <i type="int" name="NPAR">    28</i>
   <i type="int" name="NSIM">     4</i>
   <i type="int" name="NBLK">    -1</i>
   <i type="logical" name="LPLANE"> T  </i>
   <i type="logical" name="LSCALAPACK"> T  </i>
   <i type="logical" name="LSCAAWARE"> F  </i>
   <i type="logical" name="LSCALU"> F  </i>
   <i type="logical" name="LASYNC"> F  </i>
   <i type="logical" name="LORBITALREAL"> F  </i>
  </separator>
  <separator name="miscellaneous" >
   <i type="int" name="IDIOT">     3</i>
   <i type="int" name="ISPECIAL">     0</i>
   <i type="logical" name="LMUSIC"> F  </i>
   <v name="POMASS">      7.01000000     24.30500000    208.98000000     32.06600000     16.00000000</v>
   <v name="DARWINR">      0.00000000      0.00000000      0.00000000      0.00000000      0.00000000</v>
   <v name="DARWINV">      1.00000000      1.00000000      1.00000000      1.00000000      1.00000000</v>
   <i type="logical" name="LCORR"> T  </i>
  </separator>
  <i type="logical" name="GGA_COMPAT"> T  </i>
  <i type="logical" name="LBERRY"> F  </i>
  <i type="int" name="ICORELEVEL">     0</i>
  <i type="logical" name="LDAU"> F  </i>
  <i type="int" name="I_CONSTRAINED_M">     0</i>
  <separator name="electronic exchange-correlation" >
   <i type="string" name="GGA">--</i>
   <i type="int" name="VOSKOWN">     0</i>
   <i type="logical" name="LHFCALC"> F  </i>
   <i type="string" name="PRECFOCK"></i>
   <i type="logical" name="LSYMGRAD"> F  </i>
   <i type="logical" name="LHFONE"> F  </i>
   <i type="logical" name="LRHFCALC"> F  </i>
   <i type="logical" name="LTHOMAS"> F  </i>
   <i type="logical" name="LMODELHF"> F  </i>
   <i name="ENCUT4O">     -1.00000000</i>
   <i type="int" name="EXXOEP">     0</i>
   <i type="int" name="FOURORBIT">     0</i>
   <i name="AEXX">      0.00000000</i>
   <i name="HFALPHA">      0.00000000</i>
   <i name="MCALPHA">      0.00000000</i>
   <i name="ALDAX">      1.00000000</i>
   <i name="AGGAX">      1.00000000</i>
   <i name="ALDAC">      1.00000000</i>
   <i name="AGGAC">      1.00000000</i>
   <i type="int" name="NKREDX">     1</i>
   <i type="int" name="NKREDY">     1</i>
   <i type="int" name="NKREDZ">     1</i>
   <i type="logical" name="SHIFTRED"> F  </i>
   <i type="logical" name="ODDONLY"> F  </i>
   <i type="logical" name="EVENONLY"> F  </i>
   <i type="int" name="LMAXFOCK">     0</i>
   <i type="int" name="NMAXFOCKAE">     0</i>
   <i type="logical" name="LFOCKAEDFT"> F  </i>
   <i name="HFSCREEN">      0.00000000</i>
   <i name="HFSCREENC">      0.00000000</i>
   <i type="int" name="NBANDSGWLOW">     0</i>
  </separator>
  <separator name="vdW DFT" >
   <i type="logical" name="LUSE_VDW"> F  </i>
   <i name="Zab_VDW">     -0.84910000</i>
   <i name="PARAM1">      0.12340000</i>
   <i name="PARAM2">      1.00000000</i>
   <i name="PARAM3">      0.00000000</i>
  </separator>
  <separator name="model GW" >
   <i type="int" name="MODEL_GW">     0</i>
   <i name="MODEL_EPS0">     12.17134107</i>
   <i name="MODEL_ALPHA">      1.00000000</i>
  </separator>
  <separator name="linear response parameters" >
   <i type="logical" name="LEPSILON"> F  </i>
   <i type="logical" name="LRPA"> F  </i>
   <i type="logical" name="LNABLA"> F  </i>
   <i type="logical" name="LVEL"> F  </i>
   <i type="int" name="KINTER">     0</i>
   <i name="CSHIFT">      0.10000000</i>
   <i name="OMEGAMAX">     -1.00000000</i>
   <i name="DEG_THRESHOLD">      0.00200000</i>
   <i name="RTIME">     -0.10000000</i>
   <i name="WPLASMAI">      0.00000000</i>
   <v name="DFIELD">      0.00000000      0.00000000      0.00000000</v>
   <v name="WPLASMA">      0.00000000      0.00000000      0.00000000      0.00000000      0.00000000      0.00000000      0.00000000      0.00000000      0.00000000</v>
  </separator>
  <separator name="orbital magnetization" >
   <i type="logical" name="NUCIND"> F  </i>
   <v name="MAGPOS">      0.00000000      0.00000000      0.00000000</v>
   <i type="logical" name="LNICSALL"> T  </i>
   <i type="logical" name="ORBITALMAG"> F  </i>
   <i type="logical" name="LMAGBLOCH"> F  </i>
   <i type="logical" name="LCHIMAG"> F  </i>
   <i type="logical" name="LGAUGE"> T  </i>
   <i type="int" name="MAGATOM">     0</i>
   <v name="MAGDIPOL">      0.00000000      0.00000000      0.00000000</v>
   <v name="AVECCONST">      0.00000000      0.00000000      0.00000000</v>
  </separator>
  <separator name="response functions" >
   <i type="logical" name="LADDER"> F  </i>
   <i type="logical" name="LRPAFORCE"> F  </i>
   <i type="logical" name="LFXC"> F  </i>
   <i type="logical" name="LHARTREE"> T  </i>
   <i type="int" name="IBSE">     0</i>
   <v type="int" name="KPOINT">    -1     0     0     0</v>
   <i type="logical" name="LTCTE"> F  </i>
   <i type="logical" name="LTETE"> F  </i>
   <i type="logical" name="LTRIPLET"> F  </i>
   <i type="logical" name="LFXCEPS"> F  </i>
   <i type="logical" name="LFXHEG"> F  </i>
   <i type="int" name="NATURALO">     2</i>
   <i type="logical" name="L2ORDER"> F  </i>
   <i type="logical" name="LMP2LT"> F  </i>
   <i type="logical" name="LUSEW"> F  </i>
   <i name="ENCUTGW">     -2.00000000</i>
   <i name="ENCUTGWSOFT">     -2.00000000</i>
   <i name="ENCUTLF">     -1.00000000</i>
   <i type="int" name="LMAXMP2">    -1</i>
   <i name="SCISSOR">      0.00000000</i>
   <i type="int" name="NOMEGA">     0</i>
   <i type="int" name="NOMEGAR">     0</i>
   <i type="int" name="NBANDSGW">    -1</i>
   <i type="int" name="NBANDSO">    -1</i>
   <i type="int" name="NBANDSV">    -1</i>
   <i type="int" name="NELM">     1</i>
   <i type="int" name="NELMHF">     1</i>
   <i type="int" name="DIM">     3</i>
   <i type="int" name="ANTIRES">     0</i>
   <i name="OMEGAMAX">    -30.00000000</i>
   <i name="OMEGAMIN">    -30.00000000</i>
   <i name="OMEGATL">   -200.00000000</i>
   <i type="int" name="OMEGAGRID">   140</i>
   <i name="CSHIFT">     -0.10000000</i>
   <i type="logical" name="SELFENERGY"> F  </i>
   <i type="logical" name="LSPECTRAL"> F  </i>
   <i type="logical" name="LSPECTRALGW"> F  </i>
   <i type="logical" name="LSINGLES"> F  </i>
   <i type="logical" name="LFERMIGW"> F  </i>
   <i type="logical" name="ODDONLYGW"> F  </i>
   <i type="logical" name="EVENONLYGW"> F  </i>
   <i type="int" name="NKREDLFX">     1</i>
   <i type="int" name="NKREDLFY">     1</i>
   <i type="int" name="NKREDLFZ">     1</i>
   <i type="int" name="MAXMEM">  2800</i>
   <i type="int" name="TELESCOPE">     0</i>
   <i type="int" name="TAUPAR">     1</i>
   <i type="int" name="OMEGAPAR">    -1</i>
   <i name="LAMBDA">      1.00000000</i>
  </separator>
  <separator name="External order field" >
   <i name="OFIELD_KAPPA">      0.00000000</i>
   <v name="OFIELD_K">      0.00000000      0.00000000      0.00000000</v>
   <i name="OFIELD_Q6_NEAR">      0.00000000</i>
   <i name="OFIELD_Q6_FAR">      0.00000000</i>
   <i name="OFIELD_A">      0.00000000</i>
  </separator>
 </parameters>
 <atominfo>
  <atoms>      59 </atoms>
  <types>       5 </types>
  <array name="atoms" >
   <dimension dim="1">ion</dimension>
   <field type="string">element</field>
   <field type="int">atomtype</field>
   <set>
    <rc><c>Li</c><c>   1</c></rc>
    <rc><c>Li</c><c>   1</c></rc>
    <rc><c>Li</c><c>   1</c></rc>
    <rc><c>Li</c><c>   1</c></rc>
    <rc><c>Li</c><c>   1</c></rc>
    <rc><c>Li</c><c>   1</c></rc>
    <rc><c>Mg</c><c>   2</c></rc>
    <rc><c>Mg</c><c>   2</c></rc>
    <rc><c>Mg</c><c>   2</c></rc>
    <rc><c>Mg</c><c>   2</c></rc>
    <rc><c>Mg</c><c>   2</c></rc>
    <rc><c>Bi</c><c>   3</c></rc>
    <rc><c>Bi</c><c>   3</c></rc>
    <rc><c>Bi</c><c>   3</c></rc>
    <rc><c>Bi</c><c>   3</c></rc>
    <rc><c>Bi</c><c>   3</c></rc>
    <rc><c>Bi</c><c>   3</c></rc>
    <rc><c>Bi</c><c>   3</c></rc>
    <rc><c>Bi</c><c>   3</c></rc>
    <rc><c>Bi</c><c>   3</c></rc>
    <rc><c>Bi</c><c>   3</c></rc>
    <rc><c>Bi</c><c>   3</c></rc>
    <rc><c>Bi</c><c>   3</c></rc>
    <rc><c>Bi</c><c>   3</c></rc>
    <rc><c>Bi</c><c>   3</c></rc>
    <rc><c>Bi</c><c>   3</c></rc>
    <rc><c>Bi</c><c>   3</c></rc>
    <rc><c>S </c><c>   4</c></rc>
    <rc><c>S </c><c>   4</c></rc>
    <rc><c>S </c><c>   4</c></rc>
    <rc><c>S </c><c>   4</c></rc>
    <rc><c>S </c><c>   4</c></rc>
    <rc><c>S </c><c>   4</c></rc>
    <rc><c>S </c><c>   4</c></rc>
    <rc><c>S </c><c>   4</c></rc>
    <rc><c>S </c><c>   4</c></rc>
    <rc><c>S </c><c>   4</c></rc>
    <rc><c>S </c><c>   4</c></rc>
    <rc><c>S </c><c>   4</c></rc>
    <rc><c>S </c><c>   4</c></rc>
    <rc><c>S </c><c>   4</c></rc>
    <rc><c>S </c><c>   4</c></rc>
    <rc><c>S </c><c>   4</c></rc>
    <rc><c>O </c><c>   5</c></rc>
    <rc><c>O </c><c>   5</c></rc>
    <rc><c>O </c><c>   5</c></rc>
    <rc><c>O </c><c>   5</c></rc>
    <rc><c>O </c><c>   5</c></rc>
    <rc><c>O </c><c>   5</c></rc>
    <rc><c>O </c><c>   5</c></rc>
    <rc><c>O </c><c>   5</c></rc>
    <rc><c>O </c><c>   5</c></rc>
    <rc><c>O </c><c>   5</c></rc>
    <rc><c>O </c><c>   5</c></rc>
    <rc><c>O </c><c>   5</c></rc>
    <rc><c>O </c><c>   5</c></rc>
    <rc><c>O </c><c>   5</c></rc>
    <rc><c>O </c><c>   5</c></rc>
    <rc><c>O </c><c>   5</c></rc>
   </set>
  </array>
  <array name="atomtypes" >
   <dimension dim="1">type</dimension>
   <field type="int">atomspertype</field>
   <field type="string">element</field>
   <field>mass</field>
   <field>valence</field>
   <field type="string">pseudopotential</field>
   <set>
    <rc><c>   6</c><c>Li</c><c>      7.01000000</c><c>      3.00000000</c><c>  PAW_PBE Li_sv 10Sep2004               </c></rc>
    <rc><c>   5</c><c>Mg</c><c>     24.30500000</c><c>      2.00000000</c><c>  PAW_PBE Mg 13Apr2007                  </c></rc>
    <rc><c>  16</c><c>Bi</c><c>    208.98000000</c><c>     15.00000000</c><c>  PAW_PBE Bi_d 06Sep2000                </c></rc>
    <rc><c>  16</c><c>S </c><c>     32.06600000</c><c>      6.00000000</c><c>  PAW_PBE S 06Sep2000                   </c></rc>
    <rc><c>  16</c><c>O </c><c>     16.00000000</c><c>      6.00000000</c><c>  PAW_PBE O 08Apr2002                   </c></rc>
   </set>
  </array>
 </atominfo>
 <structure name="initialpos" >
  <crystal>
   <varray name="basis" >
    <v>      11.17850000       0.00000000       0.00000000 </v>
    <v>       0.00000000       9.57460000       0.00000000 </v>
    <v>       0.00000000       0.00000000      11.18240000 </v>
   </varray>
   <i name="volume">   1196.84853820 </i>
   <varray name="rec_basis" >
    <v>       0.08945744       0.00000000       0.00000000 </v>
    <v>       0.00000000       0.10444301       0.00000000 </v>
    <v>       0.00000000       0.00000000       0.08942624 </v>
   </varray>
  </crystal>
  <varray name="positions" >
   <v>       0.12461000       0.99984000       0.18687000 </v>
   <v>       0.87539000       0.00017000       0.43687000 </v>
   <v>       0.87461000       0.00017000       0.18687000 </v>
   <v>       0.12461000       0.99984000       0.68687000 </v>
   <v>       0.37461000       0.00017000       0.68687000 </v>
   <v>       0.62539000       0.99984000       0.93687000 </v>
   <v>       0.37461000       0.00017000       0.18687000 </v>
   <v>       0.62539000       0.99984000       0.43687000 </v>
   <v>       0.37539000       0.00017000       0.93687000 </v>
   <v>       0.87539000       0.00017000       0.93687000 </v>
   <v>       0.62461000       0.99984000       0.68687000 </v>
   <v>       0.00013000       0.29519000       0.06281000 </v>
   <v>       0.25013000       0.70481000       0.06281000 </v>
   <v>       0.24987000       0.29519000       0.31282000 </v>
   <v>       0.49987000       0.70481000       0.31282000 </v>
   <v>       0.50013000       0.29519000       0.06281000 </v>
   <v>       0.75013000       0.70481000       0.06281000 </v>
   <v>       0.74987000       0.29519000       0.31282000 </v>
   <v>       0.99987000       0.70481000       0.31282000 </v>
   <v>       0.00013000       0.29519000       0.56281000 </v>
   <v>       0.25013000       0.70481000       0.56281000 </v>
   <v>       0.24987000       0.29519000       0.81282000 </v>
   <v>       0.49987000       0.70481000       0.81282000 </v>
   <v>       0.50013000       0.29519000       0.56281000 </v>
   <v>       0.75013000       0.70481000       0.56281000 </v>
   <v>       0.74987000       0.29519000       0.81282000 </v>
   <v>       0.99987000       0.70481000       0.81282000 </v>
   <v>       0.25005000       0.32677000       0.06286000 </v>
   <v>       0.00005000       0.67323000       0.06286000 </v>
   <v>       0.49995000       0.32677000       0.31286000 </v>
   <v>       0.24995000       0.67323000       0.31286000 </v>
   <v>       0.75005000       0.32677000       0.06286000 </v>
   <v>       0.50005000       0.67323000       0.06286000 </v>
   <v>       0.99995000       0.32677000       0.31286000 </v>
   <v>       0.74995000       0.67323000       0.31286000 </v>
   <v>       0.25005000       0.32677000       0.56286000 </v>
   <v>       0.00005000       0.67323000       0.56286000 </v>
   <v>       0.49995000       0.32677000       0.81286000 </v>
   <v>       0.24995000       0.67323000       0.81286000 </v>
   <v>       0.75005000       0.32677000       0.56286000 </v>
   <v>       0.50005000       0.67323000       0.56286000 </v>
   <v>       0.99995000       0.32677000       0.81286000 </v>
   <v>       0.74995000       0.67323000       0.81286000 </v>
   <v>       0.49987000       0.07798000       0.06246000 </v>
   <v>       0.24987000       0.92202000       0.06246000 </v>
   <v>       0.25013000       0.07798000       0.31246000 </v>
   <v>       0.00013000       0.92202000       0.31246000 </v>
   <v>       0.99987000       0.07798000       0.06246000 </v>
   <v>       0.74987000       0.92202000       0.06246000 </v>
   <v>       0.75013000       0.07798000       0.31246000 </v>
   <v>       0.50013000       0.92202000       0.31246000 </v>
   <v>       0.49987000       0.07798000       0.56246000 </v>
   <v>       0.24987000       0.92202000       0.56246000 </v>
   <v>       0.25013000       0.07798000       0.81246000 </v>
   <v>       0.00013000       0.92202000       0.81246000 </v>
   <v>       0.99987000       0.07798000       0.56246000 </v>
   <v>       0.74987000       0.92202000       0.56246000 </v>
   <v>       0.75013000       0.07798000       0.81246000 </v>
   <v>       0.50013000       0.92202000       0.81246000 </v>
  </varray>
 </structure>
 <calculation>
  <scstep>
   <time name="dav">   60.58   60.75</time>
   <time name="total">   60.68   60.89</time>
   <energy>
    <i name="alphaZ">   1060.66890660 </i>
    <i name="ewald"> -30428.32990439 </i>
    <i name="hartreedc"> -12690.43682680 </i>
    <i name="XCdc">   1247.23798108 </i>
    <i name="pawpsdc">  36635.26894311 </i>
    <i name="pawaedc"> -35972.74895369 </i>
    <i name="eentropy">      0.00000000 </i>
    <i name="bandstr">   1868.36735585 </i>
    <i name="atom">  44026.03258983 </i>
    <i name="e_fr_energy">   5746.06009159 </i>
    <i name="e_wo_entrp">   5746.06009159 </i>
    <i name="e_0_energy">   5746.06009159 </i>
   </energy>
  </scstep>
  <scstep>
   <time name="dav">   61.49   61.58</time>
   <time name="total">   61.50   61.59</time>
   <energy>
    <i name="e_fr_energy">    752.77350490 </i>
    <i name="e_wo_entrp">    752.77350490 </i>
    <i name="e_0_energy">    752.77350490 </i>
   </energy>
  </scstep>
  <scstep>
   <time name="dav">   70.03   70.07</time>
   <time name="total">   70.03   70.08</time>
   <energy>
    <i name="e_fr_energy">   -244.03381929 </i>
    <i name="e_wo_entrp">   -244.03381929 </i>
    <i name="e_0_energy">   -244.03381929 </i>
   </energy>
  </scstep>
  <scstep>
   <time name="dav">   72.86   73.05</time>
   <time name="total">   72.87   73.05</time>
   <energy>
    <i name="e_fr_energy">   -335.43002438 </i>
    <i name="e_wo_entrp">   -335.43002438 </i>
    <i name="e_0_energy">   -335.43002438 </i>
   </energy>
  </scstep>
  <scstep>
   <time name="dav">   95.29   95.38</time>
   <time name="total">   96.01   96.10</time>
   <energy>
    <i name="e_fr_energy">   -342.60894696 </i>
    <i name="e_wo_entrp">   -342.60894696 </i>
    <i name="e_0_energy">   -342.60894696 </i>
   </energy>
  </scstep>
  <scstep>
   <time name="dav">   85.93   86.00</time>
   <time name="total">   86.72   86.80</time>
   <energy>
    <i name="e_fr_energy">   -286.78226478 </i>
    <i name="e_wo_entrp">   -286.78226478 </i>
    <i name="e_0_energy">   -286.78226478 </i>
   </energy>
  </scstep>
  <scstep>
   <time name="dav">   65.81   65.86</time>
   <time name="total">   66.60   66.65</time>
   <energy>
    <i name="e_fr_energy">   -288.93185306 </i>
    <i name="e_wo_entrp">   -288.93185306 </i>
    <i name="e_0_energy">   -288.93185306 </i>
   </energy>
  </scstep>
  <scstep>
   <time name="dav">   76.55   76.68</time>
   <time name="total">   77.34   77.47</time>
   <energy>
    <i name="e_fr_energy">   -287.84288572 </i>
    <i name="e_wo_entrp">   -287.84288572 </i>
    <i name="e_0_energy">   -287.84288572 </i>
   </energy>
  </scstep>
  <scstep>
   <time name="dav">   69.68   69.80</time>
   <time name="total">   70.47   70.59</time>
   <energy>
    <i name="e_fr_energy">   -287.30110815 </i>
    <i name="e_wo_entrp">   -287.30110815 </i>
    <i name="e_0_energy">   -287.30110815 </i>
   </energy>
  </scstep>
  <scstep>
   <time name="dav">   74.31   74.43</time>
   <time name="total">   75.10   75.22</time>
   <energy>
    <i name="e_fr_energy">   -287.34821901 </i>
    <i name="e_wo_entrp">   -287.34821901 </i>
    <i name="e_0_energy">   -287.34821901 </i>
   </energy>
  </scstep>
  <scstep>
   <time name="dav">   81.25   81.41</time>
   <time name="total">   82.04   82.20</time>
   <energy>
    <i name="e_fr_energy">   -287.34996240 </i>
    <i name="e_wo_entrp">   -287.34996240 </i>
    <i name="e_0_energy">   -287.34996240 </i>
   </energy>
  </scstep>
  <scstep>
   <time name="dav">   80.15   80.32</time>
   <time name="total">   80.95   81.12</time>
   <energy>
    <i name="e_fr_energy">   -287.35302080 </i>
    <i name="e_wo_entrp">   -287.35302080 </i>
    <i name="e_0_energy">   -287.35302080 </i>
   </energy>
  </scstep>
  <scstep>
   <time name="dav">   72.73   72.91</time>
   <time name="total">   73.53   73.70</time>
   <energy>
    <i name="e_fr_energy">   -287.35388821 </i>
    <i name="e_wo_entrp">   -287.35388821 </i>
    <i name="e_0_energy">   -287.35388821 </i>
   </energy>
  </scstep>
  <scstep>
   <time name="dav">   77.22   77.33</time>
   <time name="total">   78.01   78.13</time>
   <energy>
    <i name="e_fr_energy">   -287.35411261 </i>
    <i name="e_wo_entrp">   -287.35411261 </i>
    <i name="e_0_energy">   -287.35411261 </i>
   </energy>
  </scstep>
  <scstep>
   <time name="dav">   74.67   74.81</time>
   <time name="total">   75.47   75.61</time>
   <energy>
    <i name="e_fr_energy">   -287.35418185 </i>
    <i name="e_wo_entrp">   -287.35418185 </i>
    <i name="e_0_energy">   -287.35418185 </i>
   </energy>
  </scstep>
  <scstep>
   <time name="dav">   78.08   78.23</time>
   <time name="total">   78.87   79.02</time>
   <energy>
    <i name="e_fr_energy">   -287.35421190 </i>
    <i name="e_wo_entrp">   -287.35421190 </i>
    <i name="e_0_energy">   -287.35421190 </i>
   </energy>
  </scstep>
  <scstep>
   <time name="dav">   69.75   69.86</time>
   <time name="total">   70.54   70.65</time>
   <energy>
    <i name="e_fr_energy">   -287.35421507 </i>
    <i name="e_wo_entrp">   -287.35421507 </i>
    <i name="e_0_energy">   -287.35421507 </i>
   </energy>
  </scstep>
  <scstep>
   <time name="dav">   68.98   69.13</time>
   <time name="total">   69.05   69.20</time>
   <energy>
    <i name="alphaZ">   1060.66890660 </i>
    <i name="ewald"> -30428.32990439 </i>
    <i name="hartreedc"> -12922.83310560 </i>
    <i name="XCdc">   1271.67797223 </i>
    <i name="pawpsdc">  43656.31898827 </i>
    <i name="pawaedc"> -42967.38612170 </i>
    <i name="eentropy">      0.00000000 </i>
    <i name="bandstr">  -3983.50354098 </i>
    <i name="atom">  44026.03258983 </i>
    <i name="e_fr_energy">   -287.35421574 </i>
    <i name="e_wo_entrp">   -287.35421574 </i>
    <i name="e_0_energy">   -287.35421574 </i>
   </energy>
  </scstep>
  <structure>
   <crystal>
    <varray name="basis" >
     <v>      11.17850000       0.00000000       0.00000000 </v>
     <v>       0.00000000       9.57460000       0.00000000 </v>
     <v>       0.00000000       0.00000000      11.18240000 </v>
    </varray>
    <i name="volume">   1196.84853820 </i>
    <varray name="rec_basis" >
     <v>       0.08945744       0.00000000       0.00000000 </v>
     <v>       0.00000000       0.10444301       0.00000000 </v>
     <v>       0.00000000       0.00000000       0.08942624 </v>
    </varray>
   </crystal>
   <varray name="positions" >
    <v>       0.12461000       0.99984000       0.18687000 </v>
    <v>       0.87539000       0.00017000       0.43687000 </v>
    <v>       0.87461000       0.00017000       0.18687000 </v>
    <v>       0.12461000       0.99984000       0.68687000 </v>
    <v>       0.37461000       0.00017000       0.68687000 </v>
    <v>       0.62539000       0.99984000       0.93687000 </v>
    <v>       0.37461000       0.00017000       0.18687000 </v>
    <v>       0.62539000       0.99984000       0.43687000 </v>
    <v>       0.37539000       0.00017000       0.93687000 </v>
    <v>       0.87539000       0.00017000       0.93687000 </v>
    <v>       0.62461000       0.99984000       0.68687000 </v>
    <v>       0.00013000       0.29519000       0.06281000 </v>
    <v>       0.25013000       0.70481000       0.06281000 </v>
    <v>       0.24987000       0.29519000       0.31282000 </v>
    <v>       0.49987000       0.70481000       0.31282000 </v>
    <v>       0.50013000       0.29519000       0.06281000 </v>
    <v>       0.75013000       0.70481000       0.06281000 </v>
    <v>       0.74987000       0.29519000       0.31282000 </v>
    <v>       0.99987000       0.70481000       0.31282000 </v>
    <v>       0.00013000       0.29519000       0.56281000 </v>
    <v>       0.25013000       0.70481000       0.56281000 </v>
    <v>       0.24987000       0.29519000       0.81282000 </v>
    <v>       0.49987000       0.70481000       0.81282000 </v>
    <v>       0.50013000       0.29519000       0.56281000 </v>
    <v>       0.75013000       0.70481000       0.56281000 </v>
    <v>       0.74987000       0.29519000       0.81282000 </v>
    <v>       0.99987000       0.70481000       0.81282000 </v>
    <v>       0.25005000       0.32677000       0.06286000 </v>
    <v>       0.00005000       0.67323000       0.06286000 </v>
    <v>       0.49995000       0.32677000       0.31286000 </v>
    <v>       0.24995000       0.67323000       0.31286000 </v>
    <v>       0.75005000       0.32677000       0.06286000 </v>
    <v>       0.50005000       0.67323000       0.06286000 </v>
    <v>       0.99995000       0.32677000       0.31286000 </v>
    <v>       0.74995000       0.67323000       0.31286000 </v>
    <v>       0.25005000       0.32677000       0.56286000 </v>
    <v>       0.00005000       0.67323000       0.56286000 </v>
    <v>       0.49995000       0.32677000       0.81286000 </v>
    <v>       0.24995000       0.67323000       0.81286000 </v>
    <v>       0.75005000       0.32677000       0.56286000 </v>
    <v>       0.50005000       0.67323000       0.56286000 </v>
    <v>       0.99995000       0.32677000       0.81286000 </v>
    <v>       0.74995000       0.67323000       0.81286000 </v>
    <v>       0.49987000       0.07798000       0.06246000 </v>
    <v>       0.24987000       0.92202000       0.06246000 </v>
    <v>       0.25013000       0.07798000       0.31246000 </v>
    <v>       0.00013000       0.92202000       0.31246000 </v>
    <v>       0.99987000       0.07798000       0.06246000 </v>
    <v>       0.74987000       0.92202000       0.06246000 </v>
    <v>       0.75013000       0.07798000       0.31246000 </v>
    <v>       0.50013000       0.92202000       0.31246000 </v>
    <v>       0.49987000       0.07798000       0.56246000 </v>
    <v>       0.24987000       0.92202000       0.56246000 </v>
    <v>       0.25013000       0.07798000       0.81246000 </v>
    <v>       0.00013000       0.92202000       0.81246000 </v>
    <v>       0.99987000       0.07798000       0.56246000 </v>
    <v>       0.74987000       0.92202000       0.56246000 </v>
    <v>       0.75013000       0.07798000       0.81246000 </v>
    <v>       0.50013000       0.92202000       0.81246000 </v>
   </varray>
  </structure>
  <varray name="forces" >
   <v>      -0.35171982       0.06375969       0.38061700 </v>
   <v>       0.96621770       0.11795435       0.23075756 </v>
   <v>       0.01674056      -0.06427893       0.45375186 </v>
   <v>      -0.36890049      -0.06819782      -0.33920736 </v>
   <v>      -0.99206084      -0.05096615      -0.94630335 </v>
   <v>       0.30410634      -0.00426586       0.76388915 </v>
   <v>       0.21702463       0.09074596       1.95164655 </v>
   <v>      -0.55211096      -0.00348317      -1.57724669 </v>
   <v>      -1.19642081       0.22244548      -0.51831218 </v>
   <v>       1.13603871      -0.24344874      -0.52393465 </v>
   <v>       0.89051277       0.11685798       0.28659925 </v>
   <v>       0.24252372       0.02729102       0.11892693 </v>
   <v>      -0.63594258      -1.08178814       0.05823926 </v>
   <v>      -0.40292312      -0.97381223       0.58051904 </v>
   <v>      -0.20063925       0.06542889       0.12404718 </v>
   <v>       0.18954157       1.09823276       0.37128869 </v>
   <v>       0.17022635      -0.06563107       0.39202598 </v>
   <v>       0.35070538       0.04124272      -0.12602566 </v>
   <v>       0.28474740       0.99293869       0.34133876 </v>
   <v>       0.24848233      -1.92508577      -0.15433889 </v>
   <v>      -0.40922370       1.89512721      -0.38363340 </v>
   <v>      -0.59912251       0.08368740      -0.27356525 </v>
   <v>      -0.23615719      -2.11356903      -0.15835332 </v>
   <v>      -0.64432118       1.15628032      -0.35842717 </v>
   <v>       0.79784607      -1.11462845      -0.06928230 </v>
   <v>       0.60349794       1.04196891      -0.21981563 </v>
   <v>       0.24764245       1.00396777      -0.31399274 </v>
   <v>       0.36072257       0.10289669      -0.16300125 </v>
   <v>      -0.07638817      -0.19986606      -0.08798311 </v>
   <v>       0.15174864       0.06018628      -0.07606961 </v>
   <v>       0.28582026      -0.14777676      -0.44460528 </v>
   <v>      -0.16648386       0.07964662      -0.21050241 </v>
   <v>      -0.10922693       0.02834914      -0.25265586 </v>
   <v>      -0.19732560       0.26087816      -0.30164069 </v>
   <v>      -0.24675856      -0.14245925       0.07856154 </v>
   <v>       0.46141085       0.19817740       0.21676044 </v>
   <v>      -0.39003062      -0.23987443       0.05695217 </v>
   <v>       0.13539958      -0.02471215       0.06907852 </v>
   <v>       0.49827819      -0.12021724       0.39179931 </v>
   <v>      -0.50948102       0.06005345       0.14422958 </v>
   <v>       0.42046532      -0.01821852       0.26644690 </v>
   <v>      -0.21997360       0.13532885       0.31505178 </v>
   <v>      -0.40611091      -0.01672380      -0.00578835 </v>
   <v>      -1.45971786      -0.99619866      -0.88493891 </v>
   <v>       1.79057584       0.83227889       0.36305321 </v>
   <v>       0.62185441       0.71776373      -1.85482961 </v>
   <v>      -0.72492359      -0.87418165      -0.75865441 </v>
   <v>      -1.13934401       0.08759837       0.05192216 </v>
   <v>       0.83560250       0.16472802      -1.25097131 </v>
   <v>      -0.09099714       0.01906869       1.14420723 </v>
   <v>       0.11722129      -0.21251800      -0.04700941 </v>
   <v>       1.73565614      -0.99403593       0.83156669 </v>
   <v>       0.31793571      -1.55395336       1.26331720 </v>
   <v>       1.52430276      -0.07025500       0.17183174 </v>
   <v>      -0.66098004      -0.93236602       0.65920605 </v>
   <v>      -0.21441199       1.72708627       0.03278856 </v>
   <v>      -1.84528465       0.90195887      -0.40522035 </v>
   <v>      -1.05258580      -0.80681486       0.53942454 </v>
   <v>       0.17671880       1.66539848       0.05646430 </v>
  </varray>
  <varray name="stress" >
   <v>      -7.10250649      -0.02941750      -0.92234263 </v>
   <v>      -0.02941746     -12.66816732      -0.15889570 </v>
   <v>      -0.92234256      -0.15889581      -3.29255373 </v>
  </varray>
  <energy>
   <i name="e_fr_energy">   -299.93169383 </i>
   <i name="e_wo_entrp">   -299.93169383 </i>
   <i name="e_0_energy">      0.00000000 </i>
  </energy>
  <time name="totalsc"> 1465.30 1467.78</time>
 </calculation>
 <calculation>
  <scstep>
   <time name="dav">   61.83   61.88</time>
   <time name="total">   62.62   62.67</time>
   <energy>
    <i name="alphaZ">   1075.76167053 </i>
    <i name="ewald"> -30547.66315034 </i>
    <i name="hartreedc"> -12993.86118603 </i>
    <i name="XCdc">   1279.95079151 </i>
    <i name="pawpsdc">  43655.50479961 </i>
    <i name="pawaedc"> -42966.56827482 </i>
    <i name="eentropy">      0.00000000 </i>
    <i name="bandstr">  -3815.62002975 </i>
    <i name="atom">  44026.03258983 </i>
    <i name="e_fr_energy">   -286.46278946 </i>
    <i name="e_wo_entrp">   -286.46278946 </i>
    <i name="e_0_energy">   -286.46278946 </i>
   </energy>
  </scstep>
  <scstep>
   <time name="dav">   69.81   69.91</time>
   <time name="total">   70.60   70.70</time>
   <energy>
    <i name="e_fr_energy">   -289.72216032 </i>
    <i name="e_wo_entrp">   -289.72216032 </i>
    <i name="e_0_energy">   -289.72216032 </i>
   </energy>
  </scstep>
  <scstep>
   <time name="dav">   91.42   91.63</time>
   <time name="total">   92.20   92.41</time>
   <energy>
    <i name="e_fr_energy">   -289.50384640 </i>
    <i name="e_wo_entrp">   -289.50384640 </i>
    <i name="e_0_energy">   -289.50384640 </i>
   </energy>
  </scstep>
  <scstep>
   <time name="dav">   73.36   73.47</time>
   <time name="total">   74.16   74.27</time>
   <energy>
    <i name="e_fr_energy">   -289.35043348 </i>
    <i name="e_wo_entrp">   -289.35043348 </i>
    <i name="e_0_energy">   -289.35043348 </i>
   </energy>
  </scstep>
  <scstep>
   <time name="dav">   74.19   74.33</time>
   <time name="total">   74.98   75.13</time>
   <energy>
    <i name="e_fr_energy">   -289.34388572 </i>
    <i name="e_wo_entrp">   -289.34388572 </i>
    <i name="e_0_energy">   -289.34388572 </i>
   </energy>
  </scstep>
  <scstep>
   <time name="dav">   72.42   72.54</time>
   <time name="total">   73.21   73.33</time>
   <energy>
    <i name="e_fr_energy">   -289.34243507 </i>
    <i name="e_wo_entrp">   -289.34243507 </i>
    <i name="e_0_energy">   -289.34243507 </i>
   </energy>
  </scstep>
  <scstep>
   <time name="dav">   74.17   74.29</time>
   <time name="total">   74.96   75.08</time>
   <energy>
    <i name="e_fr_energy">   -289.34139956 </i>
    <i name="e_wo_entrp">   -289.34139956 </i>
    <i name="e_0_energy">   -289.34139956 </i>
   </energy>
  </scstep>
  <scstep>
   <time name="dav">   94.64   95.54</time>
   <time name="total">   95.43   96.34</time>
   <energy>
    <i name="e_fr_energy">   -289.34128929 </i>
    <i name="e_wo_entrp">   -289.34128929 </i>
    <i name="e_0_energy">   -289.34128929 </i>
   </energy>
  </scstep>
  <scstep>
   <time name="dav">   63.91   65.78</time>
   <time name="total">   64.66   66.60</time>
   <energy>
    <i name="e_fr_energy">   -289.34132671 </i>
    <i name="e_wo_entrp">   -289.34132671 </i>
    <i name="e_0_energy">   -289.34132671 </i>
   </energy>
  </scstep>
  <scstep>
   <time name="dav">   84.00   84.71</time>
   <time name="total">   84.78   85.50</time>
   <energy>
    <i name="e_fr_energy">   -289.34133201 </i>
    <i name="e_wo_entrp">   -289.34133201 </i>
    <i name="e_0_energy">   -289.34133201 </i>
   </energy>
  </scstep>
  <scstep>
   <time name="dav">   64.79   64.87</time>
   <time name="total">   65.57   65.66</time>
   <energy>
    <i name="e_fr_energy">   -289.34133201 </i>
    <i name="e_wo_entrp">   -289.34133201 </i>
    <i name="e_0_energy">   -289.34133201 </i>
   </energy>
  </scstep>
  <scstep>
   <time name="dav">   69.06   69.10</time>
   <time name="total">   69.13   69.18</time>
   <energy>
    <i name="alphaZ">   1075.76167053 </i>
    <i name="ewald"> -30547.66315034 </i>
    <i name="hartreedc"> -12871.03766444 </i>
    <i name="XCdc">   1274.68423275 </i>
    <i name="pawpsdc">  44019.87520679 </i>
    <i name="pawaedc"> -43333.98304780 </i>
    <i name="eentropy">      0.00000000 </i>
    <i name="bandstr">  -3933.01116863 </i>
    <i name="atom">  44026.03258983 </i>
    <i name="e_fr_energy">   -289.34133130 </i>
    <i name="e_wo_entrp">   -289.34133130 </i>
    <i name="e_0_energy">   -289.34133130 </i>
   </energy>
  </scstep>
  <structure>
   <crystal>
    <varray name="basis" >
     <v>      11.13000433      -0.00020086      -0.00629772 </v>
     <v>      -0.00017204       9.50051296      -0.00092927 </v>
     <v>      -0.00629992      -0.00108531      11.15991071 </v>
    </varray>
    <i name="volume">   1180.05694490 </i>
    <varray name="rec_basis" >
     <v>       0.08984725       0.00000163       0.00005072 </v>
     <v>       0.00000191       0.10525748       0.00001024 </v>
     <v>       0.00005070       0.00000877       0.08960648 </v>
    </varray>
   </crystal>
   <varray name="positions" >
    <v>       0.12309210       0.00016126       0.18851204 </v>
    <v>       0.87955987       0.00076433       0.43786552 </v>
    <v>       0.87468225      -0.00015388       0.18882756 </v>
    <v>       0.12301795       0.99949638       0.68540661 </v>
    <v>       0.37032860      -0.00008680       0.68278750 </v>
    <v>       0.62670242       0.99981851       0.94016554 </v>
    <v>       0.37554661       0.00062723       0.19528971 </v>
    <v>       0.62300727       0.99982245       0.43006551 </v>
    <v>       0.37022665       0.00129082       0.93463392 </v>
    <v>       0.88029276      -0.00105664       0.93460966 </v>
    <v>       0.62845315       0.00042880       0.68810643 </v>
    <v>       0.00117665       0.29532751       0.06332307 </v>
    <v>       0.24738549       0.69935929       0.06306125 </v>
    <v>       0.24813112       0.29028334       0.31532445 </v>
    <v>       0.49900411       0.70513967       0.31335516 </v>
    <v>       0.50094800       0.30072356       0.06441180 </v>
    <v>       0.75086464       0.70447931       0.06450126 </v>
    <v>       0.75138353       0.29539781       0.31227631 </v>
    <v>       0.00109887       0.70981303       0.31429259 </v>
    <v>       0.00120237       0.28549025       0.56214416 </v>
    <v>       0.24836393       0.71435880       0.56115494 </v>
    <v>       0.24728439       0.29561167       0.81163980 </v>
    <v>       0.49885082       0.69416055       0.81213684 </v>
    <v>       0.49734933       0.30101604       0.56126369 </v>
    <v>       0.75357324       0.69919382       0.56251111 </v>
    <v>       0.75247449       0.30044007       0.81187168 </v>
    <v>       0.00093874       0.70986860       0.81146539 </v>
    <v>       0.25160676       0.32728846       0.06215679 </v>
    <v>      -0.00027967       0.67222295       0.06248043 </v>
    <v>       0.50060490       0.32707326       0.31253182 </v>
    <v>       0.25118350       0.67248541       0.31094190 </v>
    <v>       0.74933151       0.32717131       0.06195186 </v>
    <v>       0.49957861       0.67337284       0.06177000 </v>
    <v>       0.99909841       0.32808446       0.31155867 </v>
    <v>       0.74888507       0.67251220       0.31319893 </v>
    <v>       0.25204129       0.32776854       0.56379514 </v>
    <v>      -0.00163324       0.67202137       0.56310570 </v>
    <v>       0.50053434       0.32664549       0.81315802 </v>
    <v>       0.25210040       0.67262427       0.81455028 </v>
    <v>       0.74785125       0.32707259       0.56348223 </v>
    <v>       0.50186459       0.67313820       0.56400949 </v>
    <v>       0.99900067       0.32745187       0.81421918 </v>
    <v>       0.74819736       0.67314574       0.81283503 </v>
    <v>       0.49357035       0.07296055       0.05864223 </v>
    <v>       0.25759752       0.92621353       0.06402627 </v>
    <v>       0.25281371       0.08159653       0.30445797 </v>
    <v>      -0.00299853       0.91761534       0.30918704 </v>
    <v>       0.99495297       0.07842137       0.06268400 </v>
    <v>       0.75347618       0.92285000       0.05706311 </v>
    <v>       0.74973729       0.07807608       0.31739629 </v>
    <v>       0.50063589       0.92094921       0.31225719 </v>
    <v>       0.50736051       0.07297144       0.56604751 </v>
    <v>       0.25124210       0.91419024       0.56791015 </v>
    <v>       0.25670838       0.07762601       0.81320131 </v>
    <v>      -0.00272257       0.91732217       0.81530392 </v>
    <v>       0.99894467       0.08668211       0.56260146 </v>
    <v>       0.74190637       0.92656462       0.56071181 </v>
    <v>       0.74558739       0.07391478       0.81478716 </v>
    <v>       0.50089266       0.93041129       0.81270360 </v>
   </varray>
  </structure>
  <varray name="forces" >
   <v>      -0.16182396       0.02679720       0.11472248 </v>
   <v>       0.49757725       0.05296578       0.27561416 </v>
   <v>      -0.12485813      -0.03518047       0.23996442 </v>
   <v>      -0.26749136      -0.03950820      -0.16043191 </v>
   <v>      -0.33052780       0.00236401      -0.62107285 </v>
   <v>      -0.00026349       0.00253200       0.52681375 </v>
   <v>       0.54690895      -0.06130256       0.51154387 </v>
   <v>      -0.43205657       0.01954484      -0.52041547 </v>
   <v>      -0.28097870      -0.03352686      -0.09931817 </v>
   <v>       0.33982772      -0.01511782      -0.35556859 </v>
   <v>       0.39012996       0.00957554       0.34289301 </v>
   <v>       0.14237991       0.34966966       0.05489279 </v>
   <v>      -0.19961606       0.09927861      -0.00901682 </v>
   <v>      -0.23593761       0.84782784       0.32239362 </v>
   <v>      -0.07427488      -0.59233161       0.04755681 </v>
   <v>       0.04080950      -0.27665021       0.02478924 </v>
   <v>      -0.00245706      -0.02764374       0.14737493 </v>
   <v>       0.17321462       0.29169926      -0.05121567 </v>
   <v>       0.14527980      -1.11638895       0.15522023 </v>
   <v>       0.02875687       2.62952287      -0.09354023 </v>
   <v>      -0.10568938      -2.25868466      -0.33772554 </v>
   <v>      -0.14675471       0.20928068      -0.01473386 </v>
   <v>      -0.06880907       0.07773909      -0.06964822 </v>
   <v>      -0.17356247      -0.20711010      -0.02864293 </v>
   <v>       0.24370244       0.13780327       0.01542733 </v>
   <v>       0.15078708      -0.03132014      -0.14829420 </v>
   <v>       0.10293361      -1.20004919      -0.12975326 </v>
   <v>       0.17235992       0.22439250      -0.06971768 </v>
   <v>      -0.06987088      -0.19454922      -0.04127083 </v>
   <v>       0.03508384       0.03127128      -0.02844804 </v>
   <v>       0.15811475      -0.08286744      -0.27079545 </v>
   <v>      -0.03292394       0.12990453      -0.10145569 </v>
   <v>      -0.05591342      -0.15306530      -0.07869502 </v>
   <v>      -0.08882033       0.16737083      -0.17549568 </v>
   <v>      -0.10830521      -0.13625211       0.06388839 </v>
   <v>       0.21913540       0.09355279       0.13518155 </v>
   <v>      -0.18435545      -0.10523524       0.01894738 </v>
   <v>       0.03535858       0.25063838       0.02102532 </v>
   <v>       0.23059048      -0.14372901       0.17801126 </v>
   <v>      -0.23055243       0.21360857       0.06185361 </v>
   <v>       0.16352782      -0.18958638       0.09509003 </v>
   <v>      -0.12340816       0.05279146       0.17319069 </v>
   <v>      -0.13536510      -0.14810323      -0.00535324 </v>
   <v>      -0.93354673       0.54910112      -0.29642239 </v>
   <v>       0.86649684      -0.48575355       0.55927634 </v>
   <v>       0.12602924      -0.81438592      -1.10018069 </v>
   <v>      -0.53787162       1.21728795      -0.54839469 </v>
   <v>      -0.71812464      -0.16785729       0.19184189 </v>
   <v>       0.78240214       0.00048953      -0.77941344 </v>
   <v>       0.21381369      -0.09605377       0.65607316 </v>
   <v>      -0.00907771       0.20676844      -0.03750203 </v>
   <v>       0.88143308       0.56449990       0.27163670 </v>
   <v>       0.04979633       2.53879331       1.10019993 </v>
   <v>       0.54574638       0.06465189      -0.40137519 </v>
   <v>      -0.23769625       1.09617517       0.23726895 </v>
   <v>      -0.06485658      -2.82343166       0.03433790 </v>
   <v>      -0.84730404      -0.54057037      -0.58088193 </v>
   <v>      -0.29101605       0.40671112       0.57530745 </v>
   <v>      -0.00808643      -0.58835440       0.00244254 </v>
  </varray>
  <varray name="stress" >
   <v>       9.25269397      -0.50044132       0.76430992 </v>
   <v>      -0.50044142      12.72965709       0.88553820 </v>
   <v>       0.76430982       0.88553792       5.22785031 </v>
  </varray>
  <energy>
   <i name="e_fr_energy">   -302.03975981 </i>
   <i name="e_wo_entrp">   -302.03975981 </i>
   <i name="e_0_energy">      0.00000000 </i>
  </energy>
  <time name="totalsc"> 1008.94 1013.94</time>
 </calculation>
 <calculation>
  <scstep>
   <time name="dav">   65.23   65.42</time>
   <time name="total">   66.04   66.86</time>
   <energy>
    <i name="alphaZ">   1074.92984453 </i>
    <i name="ewald"> -30542.52512021 </i>
    <i name="hartreedc"> -12865.96443395 </i>
    <i name="XCdc">   1274.21215707 </i>
    <i name="pawpsdc">  44020.09261797 </i>
    <i name="pawaedc"> -43334.20274530 </i>
    <i name="eentropy">      0.00000000 </i>
    <i name="bandstr">  -3941.92501640 </i>
    <i name="atom">  44026.03258983 </i>
    <i name="e_fr_energy">   -289.35010645 </i>
    <i name="e_wo_entrp">   -289.35010645 </i>
    <i name="e_0_energy">   -289.35010645 </i>
   </energy>
  </scstep>
  <scstep>
   <time name="dav">   69.19   69.33</time>
   <time name="total">   69.97   70.12</time>
   <energy>
    <i name="e_fr_energy">   -289.35852581 </i>
    <i name="e_wo_entrp">   -289.35852581 </i>
    <i name="e_0_energy">   -289.35852581 </i>
   </energy>
  </scstep>
  <scstep>
   <time name="dav">   81.20   81.45</time>
   <time name="total">   81.99   82.25</time>
   <energy>
    <i name="e_fr_energy">   -289.35788757 </i>
    <i name="e_wo_entrp">   -289.35788757 </i>
    <i name="e_0_energy">   -289.35788757 </i>
   </energy>
  </scstep>
  <scstep>
   <time name="dav">   72.57   72.72</time>
   <time name="total">   73.36   73.50</time>
   <energy>
    <i name="e_fr_energy">   -289.35744245 </i>
    <i name="e_wo_entrp">   -289.35744245 </i>
    <i name="e_0_energy">   -289.35744245 </i>
   </energy>
  </scstep>
  <scstep>
   <time name="dav">   78.35   78.53</time>
   <time name="total">   79.14   79.32</time>
   <energy>
    <i name="e_fr_energy">   -289.35741863 </i>
    <i name="e_wo_entrp">   -289.35741863 </i>
    <i name="e_0_energy">   -289.35741863 </i>
   </energy>
  </scstep>
  <scstep>
   <time name="dav">   74.08   74.27</time>
   <time name="total">   74.87   75.05</time>
   <energy>
    <i name="e_fr_energy">   -289.35741222 </i>
    <i name="e_wo_entrp">   -289.35741222 </i>
    <i name="e_0_energy">   -289.35741222 </i>
   </energy>
  </scstep>
  <scstep>
   <time name="dav">   77.65   77.75</time>
   <time name="total">   78.44   78.54</time>
   <energy>
    <i name="e_fr_energy">   -289.35740425 </i>
    <i name="e_wo_entrp">   -289.35740425 </i>
    <i name="e_0_energy">   -289.35740425 </i>
   </energy>
  </scstep>
  <scstep>
   <time name="dav">   59.06   59.20</time>
   <time name="total">   59.85   59.99</time>
   <energy>
    <i name="e_fr_energy">   -289.35740164 </i>
    <i name="e_wo_entrp">   -289.35740164 </i>
    <i name="e_0_energy">   -289.35740164 </i>
   </energy>
  </scstep>
  <scstep>
   <time name="dav">   47.50   47.58</time>
   <time name="total">   47.57   47.66</time>
   <energy>
    <i name="alphaZ">   1074.92984453 </i>
    <i name="ewald"> -30542.52512021 </i>
    <i name="hartreedc"> -12872.78694365 </i>
    <i name="XCdc">   1274.50791650 </i>
    <i name="pawpsdc">  43994.93066431 </i>
    <i name="pawaedc"> -43308.78517335 </i>
    <i name="eentropy">      0.00000000 </i>
    <i name="bandstr">  -3935.66117936 </i>
    <i name="atom">  44026.03258983 </i>
    <i name="e_fr_energy">   -289.35740140 </i>
    <i name="e_wo_entrp">   -289.35740140 </i>
    <i name="e_0_energy">   -289.35740140 </i>
   </energy>
  </scstep>
  <structure>
   <crystal>
    <varray name="basis" >
     <v>      11.13265191      -0.00018990      -0.00595390 </v>
     <v>      -0.00016265       9.50455769      -0.00087853 </v>
     <v>      -0.00595598      -0.00102606      11.16113850 </v>
    </varray>
    <i name="volume">   1180.97012268 </i>
    <varray name="rec_basis" >
     <v>       0.08982588       0.00000154       0.00004793 </v>
     <v>       0.00000180       0.10521268       0.00000967 </v>
     <v>       0.00004792       0.00000828       0.08959662 </v>
    </varray>
   </crystal>
   <varray name="positions" >
    <v>       0.12317527       0.00014358       0.18842226 </v>
    <v>       0.87933120       0.00073161       0.43781093 </v>
    <v>       0.87467822      -0.00013607       0.18872047 </v>
    <v>       0.12310529       0.99951529       0.68548671 </v>
    <v>       0.37056348      -0.00007264       0.68301096 </v>
    <v>       0.62663036       0.99981967       0.93998522 </v>
    <v>       0.37549499       0.00060202       0.19482909 </v>
    <v>       0.62313813       0.99982346       0.43043782 </v>
    <v>       0.37050984       0.00122917       0.93475640 </v>
    <v>       0.88002400      -0.00098914       0.93473317 </v>
    <v>       0.62824239       0.00039639       0.68803867 </v>
    <v>       0.00111924       0.29531994       0.06329497 </v>
    <v>       0.24753597       0.69965919       0.06304762 </v>
    <v>       0.24822639       0.29055329       0.31518752 </v>
    <v>       0.49905157       0.70512153       0.31332591 </v>
    <v>       0.50090309       0.30041910       0.06432412 </v>
    <v>       0.75082431       0.70449749       0.06440872 </v>
    <v>       0.75130055       0.29538637       0.31230600 </v>
    <v>       0.00103144       0.70953775       0.31421197 </v>
    <v>       0.00114360       0.28602393       0.56218059 </v>
    <v>       0.24846081       0.71383344       0.56124549 </v>
    <v>       0.24742620       0.29558848       0.81170444 </v>
    <v>       0.49890674       0.69474649       0.81217429 </v>
    <v>       0.49750184       0.30069551       0.56134834 </v>
    <v>       0.75338445       0.69950282       0.56252738 </v>
    <v>       0.75233171       0.30015122       0.81192345 </v>
    <v>       0.00088018       0.70959028       0.81153943 </v>
    <v>       0.25152142       0.32725993       0.06219520 </v>
    <v>      -0.00026158       0.67227836       0.06250121 </v>
    <v>       0.50056900       0.32705657       0.31254975 </v>
    <v>       0.25111593       0.67252639       0.31104680 </v>
    <v>       0.74937094       0.32714923       0.06200156 </v>
    <v>       0.49960449       0.67336499       0.06182964 </v>
    <v>       0.99914514       0.32801215       0.31162988 </v>
    <v>       0.74894346       0.67255170       0.31318042 </v>
    <v>       0.25193208       0.32771359       0.56374392 </v>
    <v>      -0.00154095       0.67208787       0.56309232 </v>
    <v>       0.50050229       0.32665233       0.81314170 </v>
    <v>       0.25198244       0.67265759       0.81445776 </v>
    <v>       0.74797179       0.32705594       0.56344826 </v>
    <v>       0.50176505       0.67314325       0.56394656 </v>
    <v>       0.99905268       0.32741435       0.81414486 </v>
    <v>       0.74829346       0.67315037       0.81283645 </v>
    <v>       0.49391589       0.07323675       0.05885130 </v>
    <v>       0.25717376       0.92598278       0.06394033 </v>
    <v>       0.25266681       0.08139760       0.30489562 </v>
    <v>      -0.00282688       0.91785771       0.30936621 </v>
    <v>       0.99522258       0.07839709       0.06267190 </v>
    <v>       0.75327861       0.92280436       0.05735823 </v>
    <v>       0.74975867       0.07807076       0.31712627 </v>
    <v>       0.50060816       0.92100812       0.31226828 </v>
    <v>       0.50694968       0.07324698       0.56585105 </v>
    <v>       0.25116671       0.91462100       0.56761200 </v>
    <v>       0.25634765       0.07764548       0.81316055 </v>
    <v>      -0.00256624       0.91758063       0.81514846 </v>
    <v>       0.99899540       0.08620332       0.56259371 </v>
    <v>       0.74234308       0.92631459       0.56080767 </v>
    <v>       0.74583641       0.07413844       0.81466002 </v>
    <v>       0.50085083       0.92994960       0.81269021 </v>
   </varray>
  </structure>
  <varray name="forces" >
   <v>      -0.17184742       0.02870412       0.12977593 </v>
   <v>       0.52400575       0.05722253       0.27455208 </v>
   <v>      -0.11645842      -0.03719369       0.25215869 </v>
   <v>      -0.27314313      -0.04094249      -0.17052279 </v>
   <v>      -0.36837970      -0.00286621      -0.64043709 </v>
   <v>       0.01678571       0.00183943       0.53954009 </v>
   <v>       0.52297201      -0.04869942       0.59581223 </v>
   <v>      -0.43871005       0.01749141      -0.58057905 </v>
   <v>      -0.33871899      -0.01577467      -0.12514666 </v>
   <v>       0.38735002      -0.03028560      -0.36803815 </v>
   <v>       0.41945896       0.01618677       0.33611209 </v>
   <v>       0.14748232       0.33172632       0.05841217 </v>
   <v>      -0.22514191       0.04507128      -0.00549358 </v>
   <v>      -0.24322575       0.72948650       0.33134684 </v>
   <v>      -0.08140505      -0.55328097       0.05153474 </v>
   <v>       0.04978070      -0.21420827       0.04446578 </v>
   <v>       0.00724299      -0.02992538       0.16092719 </v>
   <v>       0.18354647       0.27759310      -0.05484038 </v>
   <v>       0.15035233      -0.97202865       0.16293094 </v>
   <v>       0.03731806       2.25401541      -0.09579417 </v>
   <v>      -0.11837357      -1.92708480      -0.32817440 </v>
   <v>      -0.17165567       0.20271335      -0.02928192 </v>
   <v>      -0.07895947      -0.00474914      -0.07474003 </v>
   <v>      -0.20276235      -0.14652319      -0.04724987 </v>
   <v>       0.27784892       0.08161639       0.01103954 </v>
   <v>       0.17748933       0.01744307      -0.15269221 </v>
   <v>       0.10803125      -1.04768532      -0.13750776 </v>
   <v>       0.18319422       0.21803697      -0.07429538 </v>
   <v>      -0.06965625      -0.19488635      -0.04365151 </v>
   <v>       0.04154969       0.03310896      -0.03113319 </v>
   <v>       0.16539135      -0.08708732      -0.28064626 </v>
   <v>      -0.04038394       0.12747737      -0.10728972 </v>
   <v>      -0.05929941      -0.14435482      -0.08817851 </v>
   <v>      -0.09507730       0.17334682      -0.18293536 </v>
   <v>      -0.11605352      -0.13672182       0.06480783 </v>
   <v>       0.23489712       0.10004577       0.13916414 </v>
   <v>      -0.19813500      -0.11356026       0.02076625 </v>
   <v>       0.04078141       0.23679706       0.02364131 </v>
   <v>       0.24672844      -0.14315561       0.19008512 </v>
   <v>      -0.24638790       0.20623263       0.06637155 </v>
   <v>       0.17785312      -0.18136405       0.10480370 </v>
   <v>      -0.12959858       0.05790513       0.18125448 </v>
   <v>      -0.15070934      -0.14159489      -0.00531257 </v>
   <v>      -0.96639319       0.47563187      -0.33090426 </v>
   <v>       0.92156889      -0.42040373       0.54627185 </v>
   <v>       0.15950624      -0.71866915      -1.14317932 </v>
   <v>      -0.54588906       1.07485281      -0.55763330 </v>
   <v>      -0.74202388      -0.15407477       0.18317162 </v>
   <v>       0.78591269       0.01013122      -0.80607326 </v>
   <v>       0.19395965      -0.09069161       0.68467287 </v>
   <v>      -0.00163067       0.18329976      -0.03733058 </v>
   <v>       0.93498543       0.49004566       0.30663600 </v>
   <v>       0.06074358       2.21409491       1.09805532 </v>
   <v>       0.60657110       0.05164535      -0.36198189 </v>
   <v>      -0.26112183       0.95714879       0.26105955 </v>
   <v>      -0.06917773      -2.45085961       0.03297014 </v>
   <v>      -0.90808582      -0.46980112      -0.56873148 </v>
   <v>      -0.33733709       0.34769079       0.57195451 </v>
   <v>       0.00243424      -0.50012862       0.00548010 </v>
  </varray>
  <varray name="stress" >
   <v>       8.22117933      -0.46188750       0.68093410 </v>
   <v>      -0.46188723      10.39337627       0.77752756 </v>
   <v>       0.68093384       0.77752753       4.63725157 </v>
  </varray>
  <energy>
   <i name="e_fr_energy">   -302.04873946 </i>
   <i name="e_wo_entrp">   -302.04873946 </i>
   <i name="e_0_energy">      0.00000000 </i>
  </energy>
  <time name="totalsc">  738.45  740.71</time>
 </calculation>
 <calculation>
  <scstep>
   <time name="dav">   67.74   67.99</time>
   <time name="total">   68.59   68.84</time>
   <energy>
    <i name="alphaZ">   1067.45216791 </i>
    <i name="ewald"> -30582.50744916 </i>
    <i name="hartreedc"> -12737.59207574 </i>
    <i name="XCdc">   1269.86486957 </i>
    <i name="pawpsdc">  43994.97147194 </i>
    <i name="pawaedc"> -43308.82617073 </i>
    <i name="eentropy">      0.00000000 </i>
    <i name="bandstr">  -4017.83391934 </i>
    <i name="atom">  44026.03258983 </i>
    <i name="e_fr_energy">   -288.43851572 </i>
    <i name="e_wo_entrp">   -288.43851572 </i>
    <i name="e_0_energy">   -288.43851572 </i>
   </energy>
  </scstep>
  <scstep>
   <time name="dav">   69.02   69.14</time>
   <time name="total">   69.82   69.95</time>
   <energy>
    <i name="e_fr_energy">   -290.44463114 </i>
    <i name="e_wo_entrp">   -290.44463114 </i>
    <i name="e_0_energy">   -290.44463114 </i>
   </energy>
  </scstep>
  <scstep>
   <time name="dav">   88.96   89.17</time>
   <time name="total">   89.75   89.95</time>
   <energy>
    <i name="e_fr_energy">   -290.39748711 </i>
    <i name="e_wo_entrp">   -290.39748711 </i>
    <i name="e_0_energy">   -290.39748711 </i>
   </energy>
  </scstep>
  <scstep>
   <time name="dav">   72.88   73.02</time>
   <time name="total">   73.67   73.81</time>
   <energy>
    <i name="e_fr_energy">   -290.35712408 </i>
    <i name="e_wo_entrp">   -290.35712408 </i>
    <i name="e_0_energy">   -290.35712408 </i>
   </energy>
  </scstep>
  <scstep>
   <time name="dav">   73.44   73.60</time>
   <time name="total">   74.24   74.39</time>
   <energy>
    <i name="e_fr_energy">   -290.33343188 </i>
    <i name="e_wo_entrp">   -290.33343188 </i>
    <i name="e_0_energy">   -290.33343188 </i>
   </energy>
  </scstep>
  <scstep>
   <time name="dav">   72.63   72.79</time>
   <time name="total">   73.40   73.58</time>
   <energy>
    <i name="e_fr_energy">   -290.33287071 </i>
    <i name="e_wo_entrp">   -290.33287071 </i>
    <i name="e_0_energy">   -290.33287071 </i>
   </energy>
  </scstep>
  <scstep>
   <time name="dav">   80.89   81.04</time>
   <time name="total">   81.68   81.83</time>
   <energy>
    <i name="e_fr_energy">   -290.33295938 </i>
    <i name="e_wo_entrp">   -290.33295938 </i>
    <i name="e_0_energy">   -290.33295938 </i>
   </energy>
  </scstep>
  <scstep>
   <time name="dav">   76.01   76.30</time>
   <time name="total">   76.79   77.09</time>
   <energy>
    <i name="e_fr_energy">   -290.33284831 </i>
    <i name="e_wo_entrp">   -290.33284831 </i>
    <i name="e_0_energy">   -290.33284831 </i>
   </energy>
  </scstep>
  <scstep>
   <time name="dav">   78.23   78.37</time>
   <time name="total">   79.01   79.16</time>
   <energy>
    <i name="e_fr_energy">   -290.33283418 </i>
    <i name="e_wo_entrp">   -290.33283418 </i>
    <i name="e_0_energy">   -290.33283418 </i>
   </energy>
  </scstep>
  <scstep>
   <time name="dav">   76.86   77.02</time>
   <time name="total">   77.65   77.82</time>
   <energy>
    <i name="e_fr_energy">   -290.33283857 </i>
    <i name="e_wo_entrp">   -290.33283857 </i>
    <i name="e_0_energy">   -290.33283857 </i>
   </energy>
  </scstep>
  <scstep>
   <time name="dav">   75.77   75.92</time>
   <time name="total">   76.56   76.71</time>
   <energy>
    <i name="e_fr_energy">   -290.33283962 </i>
    <i name="e_wo_entrp">   -290.33283962 </i>
    <i name="e_0_energy">   -290.33283962 </i>
   </energy>
  </scstep>
  <scstep>
   <time name="dav">   63.39   63.50</time>
   <time name="total">   64.18   64.29</time>
   <energy>
    <i name="e_fr_energy">   -290.33284135 </i>
    <i name="e_wo_entrp">   -290.33284135 </i>
    <i name="e_0_energy">   -290.33284135 </i>
   </energy>
  </scstep>
  <scstep>
   <time name="dav">   57.43   57.54</time>
   <time name="total">   58.21   58.33</time>
   <energy>
    <i name="e_fr_energy">   -290.33284268 </i>
    <i name="e_wo_entrp">   -290.33284268 </i>
    <i name="e_0_energy">   -290.33284268 </i>
   </energy>
  </scstep>
  <scstep>
   <time name="dav">   44.04   44.10</time>
   <time name="total">   44.11   44.17</time>
   <energy>
    <i name="alphaZ">   1067.45216791 </i>
    <i name="ewald"> -30582.50744916 </i>
    <i name="hartreedc"> -12799.27054445 </i>
    <i name="XCdc">   1272.72543109 </i>
    <i name="pawpsdc">  43668.65149765 </i>
    <i name="pawaedc"> -42977.85490107 </i>
    <i name="eentropy">      0.00000000 </i>
    <i name="bandstr">  -3965.56163475 </i>
    <i name="atom">  44026.03258983 </i>
    <i name="e_fr_energy">   -290.33284296 </i>
    <i name="e_wo_entrp">   -290.33284296 </i>
    <i name="e_0_energy">   -290.33284296 </i>
   </energy>
  </scstep>
  <structure>
   <crystal>
    <varray name="basis" >
     <v>      11.16365220      -0.00335572      -0.00450496 </v>
     <v>      -0.00286355       9.52757094       0.00307532 </v>
     <v>      -0.00450890       0.00361800      11.18104188 </v>
    </varray>
    <i name="volume">   1189.24301110 </i>
    <varray name="rec_basis" >
     <v>       0.08957644       0.00002691       0.00003611 </v>
     <v>       0.00003154       0.10495857      -0.00003395 </v>
     <v>       0.00003608      -0.00002886       0.08943713 </v>
    </varray>
   </crystal>
   <varray name="positions" >
    <v>       0.12169598       0.00044566       0.18977881 </v>
    <v>       0.88362045       0.00131120       0.43947356 </v>
    <v>       0.87421554      -0.00048173       0.19075492 </v>
    <v>       0.12115400       0.99914070       0.68404143 </v>
    <v>       0.36688500      -0.00021380       0.67827580 </v>
    <v>       0.62734722       0.99981878       0.94390283 </v>
    <v>       0.37819882       0.00058299       0.20149262 </v>
    <v>       0.62008761       0.99990196       0.42462862 </v>
    <v>       0.36652817       0.00170047       0.93312647 </v>
    <v>       0.88408416      -0.00174415       0.93205717 </v>
    <v>       0.63192371       0.00076728       0.69008188 </v>
    <v>       0.00226431       0.29705296       0.06379619 </v>
    <v>       0.24522674       0.69720703       0.06314550 </v>
    <v>       0.24633362       0.29180473       0.31782716 </v>
    <v>       0.49827876       0.70250592       0.31380715 </v>
    <v>       0.50151766       0.30206293       0.06529751 </v>
    <v>       0.75121598       0.70418493       0.06592345 </v>
    <v>       0.75282834       0.29688207       0.31180677 </v>
    <v>       0.00227850       0.70711645       0.31562869 </v>
    <v>       0.00182849       0.29257342       0.56144653 </v>
    <v>       0.24708717       0.70885074       0.55903251 </v>
    <v>       0.24542367       0.29681325       0.81100149 </v>
    <v>       0.49806869       0.68948958       0.81152003 </v>
    <v>       0.49527032       0.30282260       0.56038960 </v>
    <v>       0.75626175       0.69715290       0.56242985 </v>
    <v>       0.75436757       0.30281852       0.81080850 </v>
    <v>       0.00186597       0.70681618       0.81028984 </v>
    <v>       0.25306878       0.32860927       0.06153484 </v>
    <v>      -0.00072182       0.67080507       0.06212872 </v>
    <v>       0.50106770       0.32737178       0.31225656 </v>
    <v>       0.25242783       0.67172310       0.30891021 </v>
    <v>       0.74884546       0.32798630       0.06109883 </v>
    <v>       0.49911895       0.67271036       0.06091965 </v>
    <v>       0.99831978       0.32952814       0.31021150 </v>
    <v>       0.74792466       0.67151262       0.31362250 </v>
    <v>       0.25391479       0.32870667       0.56479703 </v>
    <v>      -0.00321454       0.67092384       0.56330019 </v>
    <v>       0.50096344       0.32777998       0.81338875 </v>
    <v>       0.25409407       0.67164147       0.81609753 </v>
    <v>       0.74583913       0.32824000       0.56403506 </v>
    <v>       0.50341666       0.67218778       0.56495720 </v>
    <v>       0.99803300       0.32804024       0.81558352 </v>
    <v>       0.74678903       0.67239808       0.81280067 </v>
    <v>       0.48668649       0.07315758       0.05556694 </v>
    <v>       0.26491031       0.92593335       0.06704533 </v>
    <v>       0.25466022       0.07956585       0.29609848 </v>
    <v>      -0.00670106       0.92108892       0.30538085 </v>
    <v>       0.98963428       0.07784046       0.06356144 </v>
    <v>       0.75841019       0.92326252       0.05127732 </v>
    <v>       0.75040050       0.07766326       0.32246614 </v>
    <v>       0.50084882       0.92140215       0.31200973 </v>
    <v>       0.51462763       0.07324652       0.56891936 </v>
    <v>       0.25210316       0.92188984       0.57497105 </v>
    <v>       0.26216894       0.07773080       0.81197842 </v>
    <v>      -0.00508125       0.92007760       0.81765327 </v>
    <v>       0.99824566       0.07817532       0.56280276 </v>
    <v>       0.73454857       0.92618869       0.55751770 </v>
    <v>       0.74216748       0.07388668       0.81824058 </v>
    <v>       0.50123491       0.93156217       0.81283302 </v>
   </varray>
  </structure>
  <varray name="forces" >
[...]
       <r>    8.7262    0.0000 </r>
       <r>    8.7978    0.0000 </r>
       <r>    8.8190    0.0000 </r>
       <r>    8.8538    0.0000 </r>
       <r>    8.9030    0.0000 </r>
       <r>    8.9215    0.0000 </r>
       <r>    8.9992    0.0000 </r>
       <r>    9.9703    0.0000 </r>
       <r>   10.0531    0.0000 </r>
      </set>
     </set>
    </set>
   </array>
  </eigenvalues>
  <separator name="orbital magnetization" >
   <v name="MAGDIPOLOUT">      0.00000000      0.00000000      0.00000000</v>
  </separator>
  <dos>
   <i name="efermi">      4.12772861 </i>
   <total>
    <array>
     <dimension dim="1">gridpoints</dimension>
     <dimension dim="2">spin</dimension>
     <field>energy</field>
     <field>total</field>
     <field>integrated</field>
     <set>
      <set comment="spin 1">
       <r>   -42.3304     0.0000     0.0000 </r>
       <r>   -42.1472     0.0000     0.0000 </r>
       <r>   -41.9639     0.0000     0.0000 </r>
       <r>   -41.7806     0.0000     0.0000 </r>
       <r>   -41.5974     0.0000     0.0000 </r>
       <r>   -41.4141     0.0000     0.0000 </r>
       <r>   -41.2308     0.0000     0.0000 </r>
       <r>   -41.0476     0.0000     0.0000 </r>
       <r>   -40.8643     0.0000     0.0000 </r>
       <r>   -40.6810     0.0000     0.0000 </r>
       <r>   -40.4978     0.0000     0.0000 </r>
       <r>   -40.3145     0.0000     0.0000 </r>
       <r>   -40.1312     0.0000     0.0000 </r>
       <r>   -39.9480     0.0000     0.0000 </r>
       <r>   -39.7647     0.0000     4.0000 </r>
       <r>   -39.5814     0.0000     6.0000 </r>
       <r>   -39.3982     0.0000     8.0000 </r>
       <r>   -39.2149     0.0000    10.0000 </r>
       <r>   -39.0316     0.0000    12.0000 </r>
       <r>   -38.8484     0.0000    12.0000 </r>
       <r>   -38.6651     0.0000    12.0000 </r>
       <r>   -38.4818     0.0000    12.0000 </r>
       <r>   -38.2986     0.0000    12.0000 </r>
       <r>   -38.1153     0.0000    12.0000 </r>
       <r>   -37.9320     0.0000    12.0000 </r>
       <r>   -37.7488     0.0000    12.0000 </r>
       <r>   -37.5655     0.0000    12.0000 </r>
       <r>   -37.3822     0.0000    12.0000 </r>
       <r>   -37.1990     0.0000    12.0000 </r>
       <r>   -37.0157     0.0000    12.0000 </r>
       <r>   -36.8324     0.0000    12.0000 </r>
       <r>   -36.6492     0.0000    12.0000 </r>
       <r>   -36.4659     0.0000    12.0000 </r>
       <r>   -36.2826     0.0000    12.0000 </r>
       <r>   -36.0994     0.0000    12.0000 </r>
       <r>   -35.9161     0.0000    12.0000 </r>
       <r>   -35.7328     0.0000    12.0000 </r>
       <r>   -35.5496     0.0000    12.0000 </r>
       <r>   -35.3663     0.0000    12.0000 </r>
       <r>   -35.1830     0.0000    12.0000 </r>
       <r>   -34.9998     0.0000    12.0000 </r>
       <r>   -34.8165     0.0000    12.0000 </r>
       <r>   -34.6332     0.0000    12.0000 </r>
       <r>   -34.4500     0.0000    12.0000 </r>
       <r>   -34.2667     0.0000    12.0000 </r>
       <r>   -34.0834     0.0000    12.0000 </r>
       <r>   -33.9002     0.0000    12.0000 </r>
       <r>   -33.7169     0.0000    12.0000 </r>
       <r>   -33.5336     0.0000    12.0000 </r>
       <r>   -33.3504     0.0000    12.0000 </r>
       <r>   -33.1671     0.0000    12.0000 </r>
       <r>   -32.9838     0.0000    12.0000 </r>
       <r>   -32.8006     0.0000    12.0000 </r>
       <r>   -32.6173     0.0000    12.0000 </r>
       <r>   -32.4340     0.0000    12.0000 </r>
       <r>   -32.2508     0.0000    12.0000 </r>
       <r>   -32.0675     0.0000    12.0000 </r>
       <r>   -31.8842     0.0000    12.0000 </r>
       <r>   -31.7010     0.0000    12.0000 </r>
       <r>   -31.5177     0.0000    12.0000 </r>
       <r>   -31.3344     0.0000    12.0000 </r>
       <r>   -31.1512     0.0000    12.0000 </r>
       <r>   -30.9679     0.0000    12.0000 </r>
       <r>   -30.7846     0.0000    12.0000 </r>
       <r>   -30.6014     0.0000    12.0000 </r>
       <r>   -30.4181     0.0000    12.0000 </r>
       <r>   -30.2348     0.0000    12.0000 </r>
       <r>   -30.0516     0.0000    12.0000 </r>
       <r>   -29.8683     0.0000    12.0000 </r>
       <r>   -29.6850     0.0000    12.0000 </r>
       <r>   -29.5018     0.0000    12.0000 </r>
       <r>   -29.3185     0.0000    12.0000 </r>
       <r>   -29.1352     0.0000    12.0000 </r>
       <r>   -28.9520     0.0000    12.0000 </r>
       <r>   -28.7687     0.0000    12.0000 </r>
       <r>   -28.5854     0.0000    12.0000 </r>
       <r>   -28.4022     0.0000    12.0000 </r>
       <r>   -28.2189     0.0000    12.0000 </r>
       <r>   -28.0356     0.0000    12.0000 </r>
       <r>   -27.8524     0.0000    12.0000 </r>
       <r>   -27.6691     0.0000    12.0000 </r>
       <r>   -27.4858     0.0000    12.0000 </r>
       <r>   -27.3026     0.0000    12.0000 </r>
       <r>   -27.1193     0.0000    12.0000 </r>
       <r>   -26.9360     0.0000    12.0000 </r>
       <r>   -26.7528     0.0000    12.0000 </r>
       <r>   -26.5695     0.0000    12.0000 </r>
       <r>   -26.3862     0.0000    12.0000 </r>
       <r>   -26.2030     0.0000    12.0000 </r>
       <r>   -26.0197     0.0000    12.0000 </r>
       <r>   -25.8364     0.0000    12.0000 </r>
       <r>   -25.6532     0.0000    12.0000 </r>
       <r>   -25.4699     0.0000    12.0000 </r>
       <r>   -25.2866     0.0000    12.0000 </r>
       <r>   -25.1034     0.0000    12.0000 </r>
       <r>   -24.9201     0.0000    12.0000 </r>
       <r>   -24.7368     0.0000    12.0000 </r>
       <r>   -24.5536     0.0000    12.0000 </r>
       <r>   -24.3703     0.0000    12.0000 </r>
       <r>   -24.1870     0.0000    12.0000 </r>
       <r>   -24.0038     0.0000    12.0000 </r>
       <r>   -23.8205     0.0000    12.0000 </r>
       <r>   -23.6372     0.0000    12.0000 </r>
       <r>   -23.4539     0.0000    12.0000 </r>
       <r>   -23.2707     0.0000    12.0000 </r>
       <r>   -23.0874     0.0000    12.0000 </r>
       <r>   -22.9041     0.0000    12.0000 </r>
       <r>   -22.7209     0.0000    12.0000 </r>
       <r>   -22.5376     0.0000    12.0000 </r>
       <r>   -22.3543     0.0000    12.0000 </r>
       <r>   -22.1711     0.0000    12.0000 </r>
       <r>   -21.9878     0.0000    12.0000 </r>
       <r>   -21.8045     0.0000    12.0000 </r>
       <r>   -21.6213     0.0000    12.0000 </r>
       <r>   -21.4380     0.0000    12.0000 </r>
       <r>   -21.2547     0.0000    12.0000 </r>
       <r>   -21.0715     0.0000    12.0000 </r>
       <r>   -20.8882     0.0000    12.0000 </r>
       <r>   -20.7049     0.0000    12.0000 </r>
       <r>   -20.5217     0.0000    12.0000 </r>
       <r>   -20.3384     0.0000    12.0000 </r>
       <r>   -20.1551     0.0000    12.0000 </r>
       <r>   -19.9719     0.0000    12.0000 </r>
       <r>   -19.7886     0.0000    12.0000 </r>
       <r>   -19.6053     0.0000    12.0000 </r>
       <r>   -19.4221     0.0000    12.0000 </r>
       <r>   -19.2388     0.0000    12.0000 </r>
       <r>   -19.0555     0.0000    12.0000 </r>
       <r>   -18.8723     0.0000    18.0000 </r>
       <r>   -18.6890     0.0000    98.0000 </r>
       <r>   -18.5057     0.0000   160.0000 </r>
       <r>   -18.3225     0.0000   168.0000 </r>
       <r>   -18.1392     0.0000   172.0000 </r>
       <r>   -17.9559     0.0000   172.0000 </r>
       <r>   -17.7727     0.0000   172.0000 </r>
       <r>   -17.5894     0.0000   172.0000 </r>
       <r>   -17.4061     0.0000   172.0000 </r>
       <r>   -17.2229     0.0000   172.0000 </r>
       <r>   -17.0396     0.0000   172.0000 </r>
       <r>   -16.8563     0.0000   172.0000 </r>
       <r>   -16.6731     0.0000   172.0000 </r>
       <r>   -16.4898     0.0000   172.0000 </r>
       <r>   -16.3065     0.0000   172.0000 </r>
       <r>   -16.1233     0.0000   172.0000 </r>
       <r>   -15.9400     0.0000   172.0000 </r>
       <r>   -15.7567     0.0000   172.0000 </r>
       <r>   -15.5735     0.0000   172.0000 </r>
       <r>   -15.3902     0.0000   172.0000 </r>
       <r>   -15.2069     0.0000   172.0000 </r>
       <r>   -15.0237     0.0000   172.0000 </r>
       <r>   -14.8404     0.0000   172.0000 </r>
       <r>   -14.6571     0.0000   172.0000 </r>
       <r>   -14.4739     0.0000   172.0000 </r>
       <r>   -14.2906     0.0000   172.0000 </r>
       <r>   -14.1073     0.0000   172.0000 </r>
       <r>   -13.9241     0.0000   172.0000 </r>
       <r>   -13.7408     0.0000   172.0000 </r>
       <r>   -13.5575     0.0000   172.0000 </r>
       <r>   -13.3743     0.0000   172.0000 </r>
       <r>   -13.1910    48.7001   176.0944 </r>
       <r>   -13.0077     0.0000   182.0000 </r>
       <r>   -12.8245     0.0000   190.0000 </r>
       <r>   -12.6412     0.0000   198.0000 </r>
       <r>   -12.4579     0.0000   200.0000 </r>
       <r>   -12.2747     0.0000   204.0000 </r>
       <r>   -12.0914     0.0000   204.0000 </r>
       <r>   -11.9081     0.0000   204.0000 </r>
       <r>   -11.7249     0.0000   204.0000 </r>
       <r>   -11.5416     0.0000   204.0000 </r>
       <r>   -11.3583     0.0000   204.0000 </r>
       <r>   -11.1751     0.0000   204.0000 </r>
       <r>   -10.9918     0.0000   204.0000 </r>
       <r>   -10.8085     0.0000   204.0000 </r>
       <r>   -10.6253     0.0000   204.0000 </r>
       <r>   -10.4420     0.0000   204.0000 </r>
       <r>   -10.2587     0.0000   204.0000 </r>
       <r>   -10.0755     0.0000   204.0000 </r>
       <r>    -9.8922     0.0000   204.0000 </r>
       <r>    -9.7089     0.0000   204.0000 </r>
       <r>    -9.5257     1.2555   204.0103 </r>
       <r>    -9.3424     8.3296   205.7012 </r>
       <r>    -9.1591    13.4059   206.9062 </r>
       <r>    -8.9759     4.4447   208.1999 </r>
       <r>    -8.7926    26.6454   210.8906 </r>
       <r>    -8.6093    10.7265   214.2676 </r>
       <r>    -8.4261    26.3271   218.0908 </r>
       <r>    -8.2428     0.0000   220.0000 </r>
       <r>    -8.0595    34.1367   225.5858 </r>
       <r>    -7.8763    22.7649   230.8448 </r>
       <r>    -7.6930    22.2423   233.1985 </r>
       <r>    -7.5097     0.1292   235.9999 </r>
       <r>    -7.3265     0.0000   236.0000 </r>
       <r>    -7.1432     0.0000   236.0000 </r>
       <r>    -6.9599     0.0000   236.0000 </r>
       <r>    -6.7767     0.0000   236.0000 </r>
       <r>    -6.5934     0.0000   236.0000 </r>
       <r>    -6.4101     3.4321   236.0705 </r>
       <r>    -6.2269    34.4933   238.9539 </r>
       <r>    -6.0436    13.5857   243.7347 </r>
       <r>    -5.8603    25.0354   246.4725 </r>
       <r>    -5.6771    19.7913   251.4480 </r>
       <r>    -5.4938    25.9206   255.3311 </r>
       <r>    -5.3105    12.1864   258.7666 </r>
       <r>    -5.1273     1.7009   259.9898 </r>
       <r>    -4.9440    12.0784   261.0510 </r>
       <r>    -4.7607     7.1824   263.3892 </r>
       <r>    -4.5775     4.4558   264.5949 </r>
       <r>    -4.3942     7.7102   265.6950 </r>
       <r>    -4.2109     5.1240   267.2301 </r>
       <r>    -4.0277     1.8946   267.7547 </r>
       <r>    -3.8444     0.5316   267.9767 </r>
       <r>    -3.6611     0.0000   268.0000 </r>
       <r>    -3.4779     0.0000   268.0000 </r>
       <r>    -3.2946     0.0000   268.0000 </r>
       <r>    -3.1113     0.0000   268.0000 </r>
       <r>    -2.9280     0.0000   268.0000 </r>
       <r>    -2.7448     0.0000   268.0000 </r>
       <r>    -2.5615     0.0000   268.0000 </r>
       <r>    -2.3782     0.0000   268.0000 </r>
       <r>    -2.1950     0.0000   268.0000 </r>
       <r>    -2.0117     0.0000   268.0000 </r>
       <r>    -1.8284     0.0000   268.0000 </r>
       <r>    -1.6452     0.0000   268.0000 </r>
       <r>    -1.4619     0.1309   268.0008 </r>
       <r>    -1.2786     7.8679   268.7213 </r>
       <r>    -1.0954     6.3652   270.1249 </r>
       <r>    -0.9121    11.4265   271.5126 </r>
       <r>    -0.7288    12.5155   274.0685 </r>
       <r>    -0.5456    14.9358   276.0383 </r>
       <r>    -0.3623    30.7958   280.4430 </r>
       <r>    -0.1790    33.6355   286.1446 </r>
       <r>     0.0042    36.3870   293.5708 </r>
       <r>     0.1875    37.1301   300.2339 </r>
       <r>     0.3708    40.3187   307.8768 </r>
       <r>     0.5540    35.5427   313.8339 </r>
       <r>     0.7373    36.7769   320.7517 </r>
       <r>     0.9206    48.6954   327.8969 </r>
       <r>     1.1038    51.5146   336.2647 </r>
       <r>     1.2871    47.9851   344.0659 </r>
       <r>     1.4704    42.9670   352.3644 </r>
       <r>     1.6536    41.9706   361.5788 </r>
       <r>     1.8369    39.9970   369.2479 </r>
       <r>     2.0202    41.7121   377.5367 </r>
       <r>     2.2034    57.9611   386.9370 </r>
       <r>     2.3867    65.9218   397.8511 </r>
       <r>     2.5700    58.0871   408.9622 </r>
       <r>     2.7532    57.9581   420.3725 </r>
       <r>     2.9365    67.5405   432.4514 </r>
       <r>     3.1198    48.9953   440.8267 </r>
       <r>     3.3030    34.3594   446.8283 </r>
       <r>     3.4863    19.6655   453.9236 </r>
       <r>     3.6696    14.1593   457.2910 </r>
       <r>     3.8528     7.2623   459.2538 </r>
       <r>     4.0361     0.9973   459.9736 </r>
       <r>     4.2194     0.0000   460.0000 </r>
       <r>     4.4026     0.0000   460.0000 </r>
       <r>     4.5859     0.0000   460.0000 </r>
       <r>     4.7692     0.0000   460.0000 </r>
       <r>     4.9524     0.0000   460.0000 </r>
       <r>     5.1357     0.7958   460.0231 </r>
       <r>     5.3190     6.7097   460.6780 </r>
       <r>     5.5022    10.5328   462.3584 </r>
       <r>     5.6855    19.7998   464.4976 </r>
       <r>     5.8688    17.0103   468.6423 </r>
       <r>     6.0520    13.7334   471.3351 </r>
       <r>     6.2353    13.5187   473.8032 </r>
       <r>     6.4186    15.0802   476.4070 </r>
       <r>     6.6018    17.1028   479.3545 </r>
       <r>     6.7851    19.6879   482.7059 </r>
       <r>     6.9684    21.8726   486.5939 </r>
       <r>     7.1516    22.3274   490.6117 </r>
       <r>     7.3349    29.5706   495.3985 </r>
       <r>     7.5182    34.6706   501.7577 </r>
       <r>     7.7014    30.5031   507.8788 </r>
       <r>     7.8847    31.2837   513.6237 </r>
       <r>     8.0680    33.4535   519.8820 </r>
       <r>     8.2512    27.7900   525.5890 </r>
       <r>     8.4345    24.9765   530.2377 </r>
       <r>     8.6178    29.1524   535.5799 </r>
       <r>     8.8010    34.2390   541.3356 </r>
       <r>     8.9843    32.1041   547.3597 </r>
       <r>     9.1676    17.4762   551.9180 </r>
       <r>     9.3508     9.1677   554.2755 </r>
       <r>     9.5341    10.6050   555.6842 </r>
       <r>     9.7174    12.4523   557.3756 </r>
       <r>     9.9006     6.8186   559.3297 </r>
       <r>    10.0839     0.8091   559.9820 </r>
       <r>    10.2672     0.0000   560.0000 </r>
       <r>    10.4504     0.0000   560.0000 </r>
       <r>    10.6337     0.0000   560.0000 </r>
       <r>    10.8170     0.0000   560.0000 </r>
       <r>    11.0002     0.0000   560.0000 </r>
       <r>    11.1835     0.0000   560.0000 </r>
       <r>    11.3668     0.0000   560.0000 </r>
       <r>    11.5500     0.0000   560.0000 </r>
       <r>    11.7333     0.0000   560.0000 </r>
       <r>    11.9166     0.0000   560.0000 </r>
       <r>    12.0998     0.0000   560.0000 </r>
       <r>    12.2831     0.0000   560.0000 </r>
       <r>    12.4664     0.0000   560.0000 </r>
       <r>    12.6496     0.0000   560.0000 </r>
      </set>
     </set>
    </array>
   </total>
  </dos>
 </calculation>
 <structure name="finalpos" >
  <crystal>
   <varray name="basis" >
    <v>      11.22474362       0.03580474       0.01313155 </v>
    <v>       0.03119524       9.61501061      -0.04268376 </v>
    <v>       0.01312844      -0.04823052      11.17116747 </v>
   </varray>
   <i name="volume">   1205.62246121 </i>
   <varray name="rec_basis" >
    <v>       0.08908994      -0.00028952      -0.00010595 </v>
    <v>      -0.00033229       0.10400712       0.00044943 </v>
    <v>      -0.00010599       0.00039774       0.08951800 </v>
   </varray>
  </crystal>
  <varray name="positions" >
   <v>       0.09145865       0.02284977       0.21029850 </v>
   <v>       0.88929437       0.00903031       0.42758274 </v>
   <v>       0.85031076      -0.00135652       0.18893802 </v>
   <v>       0.05771552       0.96814696       0.65557305 </v>
   <v>       0.32537647       0.04564879       0.64253298 </v>
   <v>       0.63286493       0.00203522       0.96505545 </v>
   <v>       0.39167131       0.00293096       0.19280665 </v>
   <v>       0.61492548       0.00580543       0.43237884 </v>
   <v>       0.38646073      -0.00330874       0.92531728 </v>
   <v>       0.88529138       0.00620357       0.92866728 </v>
   <v>       0.63550135       0.00095384       0.70372008 </v>
   <v>      -0.00173170       0.30557320       0.06504860 </v>
   <v>       0.26270256       0.68791265       0.06257689 </v>
   <v>       0.24890446       0.29924094       0.30948773 </v>
   <v>       0.49885149       0.69655541       0.31554559 </v>
   <v>       0.50124936       0.31179316       0.06387696 </v>
   <v>       0.76018250       0.69651027       0.06094750 </v>
   <v>       0.75283055       0.30236958       0.31929997 </v>
   <v>      -0.00190572       0.70601466       0.31047811 </v>
   <v>       0.00025524       0.29267730       0.56278859 </v>
   <v>       0.24148411       0.71119549       0.56614623 </v>
   <v>       0.25669173       0.30982114       0.81305518 </v>
   <v>       0.50653732       0.68702939       0.81518128 </v>
   <v>       0.50329355       0.31560318       0.56696975 </v>
   <v>       0.74639586       0.68905663       0.56133001 </v>
   <v>       0.75624917       0.31178008       0.81711023 </v>
   <v>       0.00320020       0.69402722       0.81345092 </v>
   <v>       0.26002580       0.35789060       0.05950734 </v>
   <v>       0.00263356       0.65152222       0.06398033 </v>
   <v>       0.50432147       0.31083718       0.31317779 </v>
   <v>       0.25540129       0.66938241       0.31147819 </v>
   <v>       0.75659871       0.35408400       0.06068243 </v>
   <v>       0.50685957       0.63874266       0.06685009 </v>
   <v>       0.00370923       0.34577259       0.31250723 </v>
   <v>       0.75193627       0.65124243       0.31587060 </v>
   <v>       0.25851769       0.29416909       0.56085509 </v>
   <v>       0.00032776       0.65944427       0.56480864 </v>
   <v>       0.50882335       0.36146248       0.81357307 </v>
   <v>       0.25965470       0.65708644       0.81418613 </v>
   <v>       0.75297071       0.35907967       0.56115951 </v>
   <v>       0.50062916       0.65098133       0.56553838 </v>
   <v>       0.00407091       0.30394865       0.81570701 </v>
   <v>       0.75611533       0.64308518       0.81538761 </v>
   <v>       0.48832660       0.09094348       0.05253359 </v>
   <v>       0.30922765       0.89808459       0.05955157 </v>
   <v>       0.24701304       0.09346947       0.26066909 </v>
   <v>      -0.02700468       0.91596567       0.29468769 </v>
   <v>       0.97147555       0.09156737       0.07293579 </v>
   <v>       0.77002640       0.91216009       0.04259711 </v>
   <v>       0.75186281       0.08638242       0.33716470 </v>
   <v>       0.50208456       0.91493285       0.31455883 </v>
   <v>       0.53167227       0.09744797       0.57886861 </v>
   <v>       0.21704128       0.91478511       0.59447171 </v>
   <v>       0.29938338       0.10229637       0.80857189 </v>
   <v>      -0.01462504       0.90521017       0.81142905 </v>
   <v>       0.97392840       0.08733871       0.55373899 </v>
   <v>       0.70996946       0.90450484       0.56067820 </v>
   <v>       0.73989188       0.08997967       0.83235386 </v>
   <v>       0.52567929       0.91032015       0.82948552 </v>
  </varray>
 </structure>
</modeling>
