<?xml version="1.0" encoding="ISO-8859-1"?>
<modeling>
 <generator>
  <i name="program" type="string">vasp </i>
  <i name="version" type="string">5.4.4.18Apr17-6-g9f103f2a35  </i>
  <i name="subversion" type="string">(build Jul 31 2017 11:33:29) complex            parallel </i>
  <i name="platform" type="string">LinuxIFC </i>
  <i name="date" type="string">2021 09 24 </i>
  <i name="time" type="string">08:38:05 </i>
 </generator>
 <incar>
  <i type="string" name="SYSTEM"> La2O2S</i>
  <i type="string" name="PREC">normal</i>
  <i type="int" name="NELMIN">     4</i>
  <i type="int" name="IBRION">     2</i>
  <i type="int" name="NFREE">    10</i>
  <i name="EDIFF">      0.00000100</i>
  <i name="EDIFFG">     -0.01000000</i>
  <i type="int" name="NSW">   200</i>
  <i type="int" name="ISIF">     3</i>
  <i name="ENCUT">    600.00000000</i>
  <i name="ENAUG">    900.00000000</i>
  <i type="int" name="ISMEAR">    -5</i>
  <i type="logical" name="LWAVE"> F  </i>
  <i type="logical" name="LCHARG"> F  </i>
  <v type="int" name="KPOINT_BSE">    -1     0     0     0</v>
 </incar>
 <structure name="primitive_cell" >
  <crystal>
   <varray name="basis" >
    <v>       5.58925000       0.00000000       0.00000000 </v>
    <v>       0.00000000       9.57460000       0.00000000 </v>
    <v>       0.00000000       0.00000000      11.18240000 </v>
   </varray>
   <i name="volume">    598.42426910 </i>
   <varray name="rec_basis" >
    <v>       0.17891488       0.00000000       0.00000000 </v>
    <v>       0.00000000       0.10444301       0.00000000 </v>
    <v>       0.00000000       0.00000000       0.08942624 </v>
   </varray>
  </crystal>
  <varray name="positions" >
   <v>      -0.24922000       0.00017000       0.43687000 </v>
   <v>       0.00026000      -0.07798000       0.31246000 </v>
   <v>      -0.49974000       0.07798000       0.31246000 </v>
   <v>      -0.00026000       0.07798000      -0.43754000 </v>
   <v>       0.49974000      -0.07798000      -0.43754000 </v>
   <v>      -0.25078000       0.00017000       0.18687000 </v>
   <v>      -0.25078000       0.00017000      -0.31313000 </v>
   <v>      -0.00026000      -0.29519000       0.31282000 </v>
   <v>       0.49974000       0.29519000       0.31282000 </v>
   <v>       0.00026000       0.29519000      -0.43719000 </v>
   <v>      -0.49974000      -0.29519000      -0.43719000 </v>
   <v>      -0.00010000       0.32677000       0.31286000 </v>
   <v>       0.49990000      -0.32677000       0.31286000 </v>
   <v>       0.00010000      -0.32677000      -0.43714000 </v>
   <v>      -0.49990000       0.32677000      -0.43714000 </v>
   <v>       0.24922000      -0.00016000       0.18687000 </v>
   <v>       0.24922000      -0.00016000      -0.31313000 </v>
   <v>      -0.00026000       0.07798000       0.06246000 </v>
   <v>       0.49974000      -0.07798000       0.06246000 </v>
   <v>       0.00026000      -0.07798000      -0.18754000 </v>
   <v>      -0.49974000       0.07798000      -0.18754000 </v>
   <v>       0.00026000       0.29519000       0.06281000 </v>
   <v>      -0.49974000      -0.29519000       0.06281000 </v>
   <v>      -0.00026000      -0.29519000      -0.18718000 </v>
   <v>       0.49974000       0.29519000      -0.18718000 </v>
   <v>       0.00010000      -0.32677000       0.06286000 </v>
   <v>      -0.49990000       0.32677000       0.06286000 </v>
   <v>      -0.00010000       0.32677000      -0.18714000 </v>
   <v>       0.49990000      -0.32677000      -0.18714000 </v>
   <v>      -0.24922000       0.00017000      -0.06313000 </v>
   <v>       0.25078000      -0.00016000      -0.06313000 </v>
  </varray>
 </structure>
 <varray name="primitive_index" >
  <v type="int" >        1 </v>
  <v type="int" >       54 </v>
  <v type="int" >       49 </v>
  <v type="int" >       55 </v>
  <v type="int" >       56 </v>
  <v type="int" >        3 </v>
  <v type="int" >       13 </v>
  <v type="int" >       18 </v>
  <v type="int" >       17 </v>
  <v type="int" >       27 </v>
  <v type="int" >       24 </v>
  <v type="int" >       33 </v>
  <v type="int" >       34 </v>
  <v type="int" >       44 </v>
  <v type="int" >       39 </v>
  <v type="int" >        5 </v>
  <v type="int" >       12 </v>
  <v type="int" >       47 </v>
  <v type="int" >       48 </v>
  <v type="int" >       62 </v>
  <v type="int" >       57 </v>
  <v type="int" >       19 </v>
  <v type="int" >       16 </v>
  <v type="int" >       26 </v>
  <v type="int" >       25 </v>
  <v type="int" >       36 </v>
  <v type="int" >       31 </v>
  <v type="int" >       41 </v>
  <v type="int" >       42 </v>
  <v type="int" >        8 </v>
  <v type="int" >        7 </v>
 </varray>
 <kpoints>
  <generation param="Gamma">
   <v type="int" name="divisions">       2        2        2 </v>
   <v name="usershift">      0.00000000       0.00000000       0.00000000 </v>
   <v name="genvec1">      0.50000000       0.00000000       0.00000000 </v>
   <v name="genvec2">      0.00000000       0.50000000       0.00000000 </v>
   <v name="genvec3">      0.00000000       0.00000000       0.50000000 </v>
   <v name="shift">      0.00000000       0.00000000       0.00000000 </v>
  </generation>
  <varray name="kpointlist" >
   <v>       0.00000000       0.00000000       0.00000000 </v>
   <v>       0.50000000       0.00000000       0.00000000 </v>
   <v>       0.00000000       0.50000000       0.00000000 </v>
   <v>       0.50000000       0.50000000       0.00000000 </v>
   <v>       0.00000000       0.00000000       0.50000000 </v>
   <v>       0.50000000       0.00000000       0.50000000 </v>
   <v>       0.00000000       0.50000000       0.50000000 </v>
   <v>       0.50000000       0.50000000       0.50000000 </v>
  </varray>
  <varray name="weights" >
   <v>       0.12500000 </v>
   <v>       0.12500000 </v>
   <v>       0.12500000 </v>
   <v>       0.12500000 </v>
   <v>       0.12500000 </v>
   <v>       0.12500000 </v>
   <v>       0.12500000 </v>
   <v>       0.12500000 </v>
  </varray>
  <varray name="tetrahedronlist"  type="int" >
   <v type="int" >        2        1        2        4        5 </v>
   <v type="int" >        2        1        3        4        5 </v>
   <v type="int" >        2        3        4        5        7 </v>
   <v type="int" >        2        2        4        5        6 </v>
   <v type="int" >        2        4        5        6        8 </v>
   <v type="int" >        2        4        5        7        8 </v>
   <v type="int" >        2        1        2        3        6 </v>
   <v type="int" >        2        2        3        4        6 </v>
   <v type="int" >        2        3        4        6        8 </v>
   <v type="int" >        2        1        3        5        6 </v>
   <v type="int" >        2        3        5        6        7 </v>
   <v type="int" >        2        3        6        7        8 </v>
   <v type="int" >        2        2        3        4        7 </v>
   <v type="int" >        2        1        2        3        7 </v>
   <v type="int" >        2        1        2        5        7 </v>
   <v type="int" >        2        2        4        7        8 </v>
   <v type="int" >        2        2        6        7        8 </v>
   <v type="int" >        2        2        5        6        7 </v>
   <v type="int" >        2        1        3        4        8 </v>
   <v type="int" >        2        1        2        4        8 </v>
   <v type="int" >        2        1        2        6        8 </v>
   <v type="int" >        2        1        3        7        8 </v>
   <v type="int" >        2        1        5        7        8 </v>
   <v type="int" >        2        1        5        6        8 </v>
  </varray>
  <i name="volumeweight">      0.02083333 </i>
 </kpoints>
 <parameters>
  <separator name="general" >
   <i type="string" name="SYSTEM">La2O2S</i>
   <i type="logical" name="LCOMPAT"> F  </i>
  </separator>
  <separator name="electronic" >
   <i type="string" name="PREC">normal</i>
   <i name="ENMAX">    600.00000000</i>
   <i name="ENAUG">    900.00000000</i>
   <i name="EDIFF">      0.00000100</i>
   <i type="int" name="IALGO">    38</i>
   <i type="int" name="IWAVPR">    11</i>
   <i type="int" name="NBANDS">   308</i>
   <i name="NELECT">    472.00000000</i>
   <i type="int" name="TURBO">     0</i>
   <i type="int" name="IRESTART">     0</i>
   <i type="int" name="NREBOOT">     0</i>
   <i type="int" name="NMIN">     0</i>
   <i name="EREF">      0.00000000</i>
   <separator name="electronic smearing" >
    <i type="int" name="ISMEAR">    -5</i>
    <i name="SIGMA">      0.20000000</i>
    <i name="KSPACING">      0.50000000</i>
    <i type="logical" name="KGAMMA"> T  </i>
   </separator>
   <separator name="electronic projectors" >
    <i type="logical" name="LREAL"> F  </i>
    <v name="ROPT">      0.00000000      0.00000000      0.00000000      0.00000000      0.00000000</v>
    <i type="int" name="LMAXPAW">  -100</i>
    <i type="int" name="LMAXMIX">     2</i>
    <i type="logical" name="NLSPLINE"> F  </i>
   </separator>
   <separator name="electronic startup" >
    <i type="int" name="ISTART">     0</i>
    <i type="int" name="ICHARG">     2</i>
    <i type="int" name="INIWAV">     1</i>
   </separator>
   <separator name="electronic spin" >
    <i type="int" name="ISPIN">     1</i>
    <i type="logical" name="LNONCOLLINEAR"> F  </i>
    <v name="MAGMOM">      1.00000000      1.00000000      1.00000000      1.00000000      1.00000000      1.00000000      1.00000000      1.00000000      1.00000000      1.00000000      1.00000000      1.00000000      1.00000000      1.00000000      1.00000000      1.00000000      1.00000000      1.00000000      1.00000000      1.00000000
      1.00000000      1.00000000      1.00000000      1.00000000      1.00000000      1.00000000      1.00000000      1.00000000      1.00000000      1.00000000      1.00000000      1.00000000      1.00000000      1.00000000      1.00000000      1.00000000      1.00000000      1.00000000      1.00000000      1.00000000
      1.00000000      1.00000000      1.00000000      1.00000000      1.00000000      1.00000000      1.00000000      1.00000000      1.00000000      1.00000000      1.00000000      1.00000000      1.00000000      1.00000000      1.00000000      1.00000000      1.00000000      1.00000000      1.00000000      1.00000000
      1.00000000      1.00000000</v>
    <i name="NUPDOWN">     -1.00000000</i>
    <i type="logical" name="LSORBIT"> F  </i>
    <v name="SAXIS">      0.00000000      0.00000000      1.00000000</v>
    <i type="logical" name="LSPIRAL"> F  </i>
    <v name="QSPIRAL">      0.00000000      0.00000000      0.00000000</v>
    <i type="logical" name="LZEROZ"> F  </i>
   </separator>
   <separator name="electronic exchange-correlation" >
    <i type="logical" name="LASPH"> F  </i>
    <i type="logical" name="LMETAGGA"> F  </i>
   </separator>
   <separator name="electronic convergence" >
    <i type="int" name="NELM">    60</i>
    <i type="int" name="NELMDL">    -5</i>
    <i type="int" name="NELMIN">     4</i>
    <i name="ENINI">    600.00000000</i>
    <separator name="electronic convergence detail" >
     <i type="logical" name="LDIAG"> T  </i>
     <i type="logical" name="LSUBROT"> F  </i>
     <i name="WEIMIN">      0.00100000</i>
     <i name="EBREAK">      0.00000000</i>
     <i name="DEPER">      0.30000000</i>
     <i type="int" name="NRMM">     4</i>
     <i name="TIME">      0.40000000</i>
    </separator>
   </separator>
   <separator name="electronic mixer" >
    <i name="AMIX">      0.40000000</i>
    <i name="BMIX">      1.00000000</i>
    <i name="AMIN">      0.10000000</i>
    <i name="AMIX_MAG">      1.60000000</i>
    <i name="BMIX_MAG">      1.00000000</i>
    <separator name="electronic mixer details" >
     <i type="int" name="IMIX">     4</i>
     <i type="logical" name="MIXFIRST"> F  </i>
     <i type="int" name="MAXMIX">   -45</i>
     <i name="WC">    100.00000000</i>
     <i type="int" name="INIMIX">     1</i>
     <i type="int" name="MIXPRE">     1</i>
     <i type="int" name="MREMOVE">     5</i>
    </separator>
   </separator>
   <separator name="electronic dipolcorrection" >
    <i type="logical" name="LDIPOL"> F  </i>
    <i type="logical" name="LMONO"> F  </i>
    <i type="int" name="IDIPOL">     0</i>
    <i name="EPSILON">      1.00000000</i>
    <v name="DIPOL">   -100.00000000   -100.00000000   -100.00000000</v>
    <i name="EFIELD">      0.00000000</i>
   </separator>
  </separator>
  <separator name="grids" >
   <i type="int" name="NGX">    70</i>
   <i type="int" name="NGY">    60</i>
   <i type="int" name="NGZ">    70</i>
   <i type="int" name="NGXF">   140</i>
   <i type="int" name="NGYF">   120</i>
   <i type="int" name="NGZF">   140</i>
   <i type="logical" name="ADDGRID"> F  </i>
  </separator>
  <separator name="ionic" >
   <i type="int" name="NSW">   200</i>
   <i type="int" name="IBRION">     2</i>
   <i type="int" name="MDALGO">     0</i>
   <i type="int" name="ISIF">     3</i>
   <i name="PSTRESS">      0.00000000</i>
   <i name="EDIFFG">     -0.01000000</i>
   <i type="int" name="NFREE">    10</i>
   <i name="POTIM">      0.50000000</i>
   <i name="SMASS">     -3.00000000</i>
   <i name="SCALEE">      1.00000000</i>
  </separator>
  <separator name="ionic md" >
   <i name="TEBEG">      0.00010000</i>
   <i name="TEEND">      0.00010000</i>
   <i type="int" name="NBLOCK">     1</i>
   <i type="int" name="KBLOCK">   200</i>
   <i type="int" name="NPACO">   256</i>
   <i name="APACO">     16.00000000</i>
  </separator>
  <separator name="symmetry" >
   <i type="int" name="ISYM">     2</i>
   <i name="SYMPREC">      0.00001000</i>
  </separator>
  <separator name="dos" >
   <i type="int" name="LORBIT">     0</i>
   <v name="RWIGS">     -1.00000000     -1.00000000     -1.00000000     -1.00000000     -1.00000000</v>
   <i type="int" name="NEDOS">   301</i>
   <i name="EMIN">     10.00000000</i>
   <i name="EMAX">    -10.00000000</i>
   <i name="EFERMI">      0.00000000</i>
  </separator>
  <separator name="writing" >
   <i type="int" name="NWRITE">     2</i>
   <i type="logical" name="LWAVE"> F  </i>
   <i type="logical" name="LDOWNSAMPLE"> F  </i>
   <i type="logical" name="LCHARG"> F  </i>
   <i type="logical" name="LPARD"> F  </i>
   <i type="logical" name="LVTOT"> F  </i>
   <i type="logical" name="LVHAR"> F  </i>
   <i type="logical" name="LELF"> F  </i>
   <i type="logical" name="LOPTICS"> F  </i>
   <v name="STM">      0.00000000      0.00000000      0.00000000      0.00000000      0.00000000      0.00000000      0.00000000</v>
  </separator>
  <separator name="performance" >
   <i type="int" name="NPAR">    28</i>
   <i type="int" name="NSIM">     4</i>
   <i type="int" name="NBLK">    -1</i>
   <i type="logical" name="LPLANE"> T  </i>
   <i type="logical" name="LSCALAPACK"> T  </i>
   <i type="logical" name="LSCAAWARE"> F  </i>
   <i type="logical" name="LSCALU"> F  </i>
   <i type="logical" name="LASYNC"> F  </i>
   <i type="logical" name="LORBITALREAL"> F  </i>
  </separator>
  <separator name="miscellaneous" >
   <i type="int" name="IDIOT">     3</i>
   <i type="int" name="ISPECIAL">     0</i>
   <i type="logical" name="LMUSIC"> F  </i>
   <v name="POMASS">      7.01000000     24.30500000    208.98000000     32.06600000     16.00000000</v>
   <v name="DARWINR">      0.00000000      0.00000000      0.00000000      0.00000000      0.00000000</v>
   <v name="DARWINV">      1.00000000      1.00000000      1.00000000      1.00000000      1.00000000</v>
   <i type="logical" name="LCORR"> T  </i>
  </separator>
  <i type="logical" name="GGA_COMPAT"> T  </i>
  <i type="logical" name="LBERRY"> F  </i>
  <i type="int" name="ICORELEVEL">     0</i>
  <i type="logical" name="LDAU"> F  </i>
  <i type="int" name="I_CONSTRAINED_M">     0</i>
  <separator name="electronic exchange-correlation" >
   <i type="string" name="GGA">--</i>
   <i type="int" name="VOSKOWN">     0</i>
   <i type="logical" name="LHFCALC"> F  </i>
   <i type="string" name="PRECFOCK"></i>
   <i type="logical" name="LSYMGRAD"> F  </i>
   <i type="logical" name="LHFONE"> F  </i>
   <i type="logical" name="LRHFCALC"> F  </i>
   <i type="logical" name="LTHOMAS"> F  </i>
   <i type="logical" name="LMODELHF"> F  </i>
   <i name="ENCUT4O">     -1.00000000</i>
   <i type="int" name="EXXOEP">     0</i>
   <i type="int" name="FOURORBIT">     0</i>
   <i name="AEXX">      0.00000000</i>
   <i name="HFALPHA">      0.00000000</i>
   <i name="MCALPHA">      0.00000000</i>
   <i name="ALDAX">      1.00000000</i>
   <i name="AGGAX">      1.00000000</i>
   <i name="ALDAC">      1.00000000</i>
   <i name="AGGAC">      1.00000000</i>
   <i type="int" name="NKREDX">     1</i>
   <i type="int" name="NKREDY">     1</i>
   <i type="int" name="NKREDZ">     1</i>
   <i type="logical" name="SHIFTRED"> F  </i>
   <i type="logical" name="ODDONLY"> F  </i>
   <i type="logical" name="EVENONLY"> F  </i>
   <i type="int" name="LMAXFOCK">     0</i>
   <i type="int" name="NMAXFOCKAE">     0</i>
   <i type="logical" name="LFOCKAEDFT"> F  </i>
   <i name="HFSCREEN">      0.00000000</i>
   <i name="HFSCREENC">      0.00000000</i>
   <i type="int" name="NBANDSGWLOW">     0</i>
  </separator>
  <separator name="vdW DFT" >
   <i type="logical" name="LUSE_VDW"> F  </i>
   <i name="Zab_VDW">     -0.84910000</i>
   <i name="PARAM1">      0.12340000</i>
   <i name="PARAM2">      1.00000000</i>
   <i name="PARAM3">      0.00000000</i>
  </separator>
  <separator name="model GW" >
   <i type="int" name="MODEL_GW">     0</i>
   <i name="MODEL_EPS0">     11.58240521</i>
   <i name="MODEL_ALPHA">      1.00000000</i>
  </separator>
  <separator name="linear response parameters" >
   <i type="logical" name="LEPSILON"> F  </i>
   <i type="logical" name="LRPA"> F  </i>
   <i type="logical" name="LNABLA"> F  </i>
   <i type="logical" name="LVEL"> F  </i>
   <i type="int" name="KINTER">     0</i>
   <i name="CSHIFT">      0.10000000</i>
   <i name="OMEGAMAX">     -1.00000000</i>
   <i name="DEG_THRESHOLD">      0.00200000</i>
   <i name="RTIME">     -0.10000000</i>
   <i name="WPLASMAI">      0.00000000</i>
   <v name="DFIELD">      0.00000000      0.00000000      0.00000000</v>
   <v name="WPLASMA">      0.00000000      0.00000000      0.00000000      0.00000000      0.00000000      0.00000000      0.00000000      0.00000000      0.00000000</v>
  </separator>
  <separator name="orbital magnetization" >
   <i type="logical" name="NUCIND"> F  </i>
   <v name="MAGPOS">      0.00000000      0.00000000      0.00000000</v>
   <i type="logical" name="LNICSALL"> T  </i>
   <i type="logical" name="ORBITALMAG"> F  </i>
   <i type="logical" name="LMAGBLOCH"> F  </i>
   <i type="logical" name="LCHIMAG"> F  </i>
   <i type="logical" name="LGAUGE"> T  </i>
   <i type="int" name="MAGATOM">     0</i>
   <v name="MAGDIPOL">      0.00000000      0.00000000      0.00000000</v>
   <v name="AVECCONST">      0.00000000      0.00000000      0.00000000</v>
  </separator>
  <separator name="response functions" >
   <i type="logical" name="LADDER"> F  </i>
   <i type="logical" name="LRPAFORCE"> F  </i>
   <i type="logical" name="LFXC"> F  </i>
   <i type="logical" name="LHARTREE"> T  </i>
   <i type="int" name="IBSE">     0</i>
   <v type="int" name="KPOINT">    -1     0     0     0</v>
   <i type="logical" name="LTCTE"> F  </i>
   <i type="logical" name="LTETE"> F  </i>
   <i type="logical" name="LTRIPLET"> F  </i>
   <i type="logical" name="LFXCEPS"> F  </i>
   <i type="logical" name="LFXHEG"> F  </i>
   <i type="int" name="NATURALO">     2</i>
   <i type="logical" name="L2ORDER"> F  </i>
   <i type="logical" name="LMP2LT"> F  </i>
   <i type="logical" name="LUSEW"> F  </i>
   <i name="ENCUTGW">     -2.00000000</i>
   <i name="ENCUTGWSOFT">     -2.00000000</i>
   <i name="ENCUTLF">     -1.00000000</i>
   <i type="int" name="LMAXMP2">    -1</i>
   <i name="SCISSOR">      0.00000000</i>
   <i type="int" name="NOMEGA">     0</i>
   <i type="int" name="NOMEGAR">     0</i>
   <i type="int" name="NBANDSGW">    -1</i>
   <i type="int" name="NBANDSO">    -1</i>
   <i type="int" name="NBANDSV">    -1</i>
   <i type="int" name="NELM">     1</i>
   <i type="int" name="NELMHF">     1</i>
   <i type="int" name="DIM">     3</i>
   <i type="int" name="ANTIRES">     0</i>
   <i name="OMEGAMAX">    -30.00000000</i>
   <i name="OMEGAMIN">    -30.00000000</i>
   <i name="OMEGATL">   -200.00000000</i>
   <i type="int" name="OMEGAGRID">   140</i>
   <i name="CSHIFT">     -0.10000000</i>
   <i type="logical" name="SELFENERGY"> F  </i>
   <i type="logical" name="LSPECTRAL"> F  </i>
   <i type="logical" name="LSPECTRALGW"> F  </i>
   <i type="logical" name="LSINGLES"> F  </i>
   <i type="logical" name="LFERMIGW"> F  </i>
   <i type="logical" name="ODDONLYGW"> F  </i>
   <i type="logical" name="EVENONLYGW"> F  </i>
   <i type="int" name="NKREDLFX">     1</i>
   <i type="int" name="NKREDLFY">     1</i>
   <i type="int" name="NKREDLFZ">     1</i>
   <i type="int" name="MAXMEM">  2800</i>
   <i type="int" name="TELESCOPE">     0</i>
   <i type="int" name="TAUPAR">     1</i>
   <i type="int" name="OMEGAPAR">    -1</i>
   <i name="LAMBDA">      1.00000000</i>
  </separator>
  <separator name="External order field" >
   <i name="OFIELD_KAPPA">      0.00000000</i>
   <v name="OFIELD_K">      0.00000000      0.00000000      0.00000000</v>
   <i name="OFIELD_Q6_NEAR">      0.00000000</i>
   <i name="OFIELD_Q6_FAR">      0.00000000</i>
   <i name="OFIELD_A">      0.00000000</i>
  </separator>
 </parameters>
 <atominfo>
  <atoms>      62 </atoms>
  <types>       5 </types>
  <array name="atoms" >
   <dimension dim="1">ion</dimension>
   <field type="string">element</field>
   <field type="int">atomtype</field>
   <set>
    <rc><c>Li</c><c>   1</c></rc>
    <rc><c>Li</c><c>   1</c></rc>
    <rc><c>Li</c><c>   1</c></rc>
    <rc><c>Li</c><c>   1</c></rc>
    <rc><c>Li</c><c>   1</c></rc>
    <rc><c>Li</c><c>   1</c></rc>
    <rc><c>Li</c><c>   1</c></rc>
    <rc><c>Li</c><c>   1</c></rc>
    <rc><c>Li</c><c>   1</c></rc>
    <rc><c>Li</c><c>   1</c></rc>
    <rc><c>Li</c><c>   1</c></rc>
    <rc><c>Li</c><c>   1</c></rc>
    <rc><c>Mg</c><c>   2</c></rc>
    <rc><c>Mg</c><c>   2</c></rc>
    <rc><c>Bi</c><c>   3</c></rc>
    <rc><c>Bi</c><c>   3</c></rc>
    <rc><c>Bi</c><c>   3</c></rc>
    <rc><c>Bi</c><c>   3</c></rc>
    <rc><c>Bi</c><c>   3</c></rc>
    <rc><c>Bi</c><c>   3</c></rc>
    <rc><c>Bi</c><c>   3</c></rc>
    <rc><c>Bi</c><c>   3</c></rc>
    <rc><c>Bi</c><c>   3</c></rc>
    <rc><c>Bi</c><c>   3</c></rc>
    <rc><c>Bi</c><c>   3</c></rc>
    <rc><c>Bi</c><c>   3</c></rc>
    <rc><c>Bi</c><c>   3</c></rc>
    <rc><c>Bi</c><c>   3</c></rc>
    <rc><c>Bi</c><c>   3</c></rc>
    <rc><c>Bi</c><c>   3</c></rc>
    <rc><c>S </c><c>   4</c></rc>
    <rc><c>S </c><c>   4</c></rc>
    <rc><c>S </c><c>   4</c></rc>
    <rc><c>S </c><c>   4</c></rc>
    <rc><c>S </c><c>   4</c></rc>
    <rc><c>S </c><c>   4</c></rc>
    <rc><c>S </c><c>   4</c></rc>
    <rc><c>S </c><c>   4</c></rc>
    <rc><c>S </c><c>   4</c></rc>
    <rc><c>S </c><c>   4</c></rc>
    <rc><c>S </c><c>   4</c></rc>
    <rc><c>S </c><c>   4</c></rc>
    <rc><c>S </c><c>   4</c></rc>
    <rc><c>S </c><c>   4</c></rc>
    <rc><c>S </c><c>   4</c></rc>
    <rc><c>S </c><c>   4</c></rc>
    <rc><c>O </c><c>   5</c></rc>
    <rc><c>O </c><c>   5</c></rc>
    <rc><c>O </c><c>   5</c></rc>
    <rc><c>O </c><c>   5</c></rc>
    <rc><c>O </c><c>   5</c></rc>
    <rc><c>O </c><c>   5</c></rc>
    <rc><c>O </c><c>   5</c></rc>
    <rc><c>O </c><c>   5</c></rc>
    <rc><c>O </c><c>   5</c></rc>
    <rc><c>O </c><c>   5</c></rc>
    <rc><c>O </c><c>   5</c></rc>
    <rc><c>O </c><c>   5</c></rc>
    <rc><c>O </c><c>   5</c></rc>
    <rc><c>O </c><c>   5</c></rc>
    <rc><c>O </c><c>   5</c></rc>
    <rc><c>O </c><c>   5</c></rc>
   </set>
  </array>
  <array name="atomtypes" >
   <dimension dim="1">type</dimension>
   <field type="int">atomspertype</field>
   <field type="string">element</field>
   <field>mass</field>
   <field>valence</field>
   <field type="string">pseudopotential</field>
   <set>
    <rc><c>  12</c><c>Li</c><c>      7.01000000</c><c>      3.00000000</c><c>  PAW_PBE Li_sv 10Sep2004               </c></rc>
    <rc><c>   2</c><c>Mg</c><c>     24.30500000</c><c>      2.00000000</c><c>  PAW_PBE Mg 13Apr2007                  </c></rc>
    <rc><c>  16</c><c>Bi</c><c>    208.98000000</c><c>     15.00000000</c><c>  PAW_PBE Bi_d 06Sep2000                </c></rc>
    <rc><c>  16</c><c>S </c><c>     32.06600000</c><c>      6.00000000</c><c>  PAW_PBE S 06Sep2000                   </c></rc>
    <rc><c>  16</c><c>O </c><c>     16.00000000</c><c>      6.00000000</c><c>  PAW_PBE O 08Apr2002                   </c></rc>
   </set>
  </array>
 </atominfo>
 <structure name="initialpos" >
  <crystal>
   <varray name="basis" >
    <v>      11.17850000       0.00000000       0.00000000 </v>
    <v>       0.00000000       9.57460000       0.00000000 </v>
    <v>       0.00000000       0.00000000      11.18240000 </v>
   </varray>
   <i name="volume">   1196.84853820 </i>
   <varray name="rec_basis" >
    <v>       0.08945744       0.00000000       0.00000000 </v>
    <v>       0.00000000       0.10444301       0.00000000 </v>
    <v>       0.00000000       0.00000000       0.08942624 </v>
   </varray>
  </crystal>
  <varray name="positions" >
   <v>       0.37539000       0.00017000       0.43687000 </v>
   <v>       0.12461000       0.99984000       0.18687000 </v>
   <v>       0.37461000       0.00017000       0.18687000 </v>
   <v>       0.87539000       0.00017000       0.43687000 </v>
   <v>       0.62461000       0.99984000       0.18687000 </v>
   <v>       0.87461000       0.00017000       0.18687000 </v>
   <v>       0.12539000       0.99984000       0.93687000 </v>
   <v>       0.37539000       0.00017000       0.93687000 </v>
   <v>       0.12461000       0.99984000       0.68687000 </v>
   <v>       0.62539000       0.99984000       0.93687000 </v>
   <v>       0.87539000       0.00017000       0.93687000 </v>
   <v>       0.62461000       0.99984000       0.68687000 </v>
   <v>       0.37461000       0.00017000       0.68687000 </v>
   <v>       0.87461000       0.00017000       0.68687000 </v>
   <v>       0.00013000       0.29519000       0.06281000 </v>
   <v>       0.25013000       0.70481000       0.06281000 </v>
   <v>       0.24987000       0.29519000       0.31282000 </v>
   <v>       0.49987000       0.70481000       0.31282000 </v>
   <v>       0.50013000       0.29519000       0.06281000 </v>
   <v>       0.75013000       0.70481000       0.06281000 </v>
   <v>       0.74987000       0.29519000       0.31282000 </v>
   <v>       0.99987000       0.70481000       0.31282000 </v>
   <v>       0.00013000       0.29519000       0.56281000 </v>
   <v>       0.25013000       0.70481000       0.56281000 </v>
   <v>       0.24987000       0.29519000       0.81282000 </v>
   <v>       0.49987000       0.70481000       0.81282000 </v>
   <v>       0.50013000       0.29519000       0.56281000 </v>
   <v>       0.75013000       0.70481000       0.56281000 </v>
   <v>       0.74987000       0.29519000       0.81282000 </v>
   <v>       0.99987000       0.70481000       0.81282000 </v>
   <v>       0.25005000       0.32677000       0.06286000 </v>
   <v>       0.00005000       0.67323000       0.06286000 </v>
   <v>       0.49995000       0.32677000       0.31286000 </v>
   <v>       0.24995000       0.67323000       0.31286000 </v>
   <v>       0.75005000       0.32677000       0.06286000 </v>
   <v>       0.50005000       0.67323000       0.06286000 </v>
   <v>       0.99995000       0.32677000       0.31286000 </v>
   <v>       0.74995000       0.67323000       0.31286000 </v>
   <v>       0.25005000       0.32677000       0.56286000 </v>
   <v>       0.00005000       0.67323000       0.56286000 </v>
   <v>       0.49995000       0.32677000       0.81286000 </v>
   <v>       0.24995000       0.67323000       0.81286000 </v>
   <v>       0.75005000       0.32677000       0.56286000 </v>
   <v>       0.50005000       0.67323000       0.56286000 </v>
   <v>       0.99995000       0.32677000       0.81286000 </v>
   <v>       0.74995000       0.67323000       0.81286000 </v>
   <v>       0.49987000       0.07798000       0.06246000 </v>
   <v>       0.24987000       0.92202000       0.06246000 </v>
   <v>       0.25013000       0.07798000       0.31246000 </v>
   <v>       0.00013000       0.92202000       0.31246000 </v>
   <v>       0.99987000       0.07798000       0.06246000 </v>
   <v>       0.74987000       0.92202000       0.06246000 </v>
   <v>       0.75013000       0.07798000       0.31246000 </v>
   <v>       0.50013000       0.92202000       0.31246000 </v>
   <v>       0.49987000       0.07798000       0.56246000 </v>
   <v>       0.24987000       0.92202000       0.56246000 </v>
   <v>       0.25013000       0.07798000       0.81246000 </v>
   <v>       0.00013000       0.92202000       0.81246000 </v>
   <v>       0.99987000       0.07798000       0.56246000 </v>
   <v>       0.74987000       0.92202000       0.56246000 </v>
   <v>       0.75013000       0.07798000       0.81246000 </v>
   <v>       0.50013000       0.92202000       0.81246000 </v>
  </varray>
 </structure>
 <calculation>
  <scstep>
   <time name="dav">   65.24   65.51</time>
   <time name="total">   65.34   65.62</time>
   <energy>
    <i name="alphaZ">   1079.87189334 </i>
    <i name="ewald"> -31114.51765641 </i>
    <i name="hartreedc"> -12710.82092751 </i>
    <i name="XCdc">   1468.90023888 </i>
    <i name="pawpsdc">  36917.91861236 </i>
    <i name="pawaedc"> -36503.41947684 </i>
    <i name="eentropy">      0.00000000 </i>
    <i name="bandstr">   1592.56037735 </i>
    <i name="atom">  45173.57650906 </i>
    <i name="e_fr_energy">   5904.06957024 </i>
    <i name="e_wo_entrp">   5904.06957024 </i>
    <i name="e_0_energy">   5904.06957024 </i>
   </energy>
  </scstep>
  <scstep>
   <time name="dav">   65.38   65.55</time>
   <time name="total">   65.39   65.57</time>
   <energy>
    <i name="e_fr_energy">    755.12506975 </i>
    <i name="e_wo_entrp">    755.12506975 </i>
    <i name="e_0_energy">    755.12506975 </i>
   </energy>
  </scstep>
  <scstep>
   <time name="dav">   72.26   72.44</time>
   <time name="total">   72.26   72.44</time>
   <energy>
    <i name="e_fr_energy">   -243.81216262 </i>
    <i name="e_wo_entrp">   -243.81216262 </i>
    <i name="e_0_energy">   -243.81216262 </i>
   </energy>
  </scstep>
  <scstep>
   <time name="dav">   81.43   81.69</time>
   <time name="total">   81.43   81.69</time>
   <energy>
    <i name="e_fr_energy">   -352.21796970 </i>
    <i name="e_wo_entrp">   -352.21796970 </i>
    <i name="e_0_energy">   -352.21796970 </i>
   </energy>
  </scstep>
  <scstep>
   <time name="dav">  104.92  105.22</time>
   <time name="total">  105.65  105.95</time>
   <energy>
    <i name="e_fr_energy">   -360.59518441 </i>
    <i name="e_wo_entrp">   -360.59518441 </i>
    <i name="e_0_energy">   -360.59518441 </i>
   </energy>
  </scstep>
  <scstep>
   <time name="dav">   91.71   91.95</time>
   <time name="total">   92.51   92.76</time>
   <energy>
    <i name="e_fr_energy">   -300.79809128 </i>
    <i name="e_wo_entrp">   -300.79809128 </i>
    <i name="e_0_energy">   -300.79809128 </i>
   </energy>
  </scstep>
  <scstep>
   <time name="dav">   72.89   73.09</time>
   <time name="total">   73.68   73.90</time>
   <energy>
    <i name="e_fr_energy">   -302.96864833 </i>
    <i name="e_wo_entrp">   -302.96864833 </i>
    <i name="e_0_energy">   -302.96864833 </i>
   </energy>
  </scstep>
  <scstep>
   <time name="dav">   82.69   82.93</time>
   <time name="total">   83.50   83.74</time>
   <energy>
    <i name="e_fr_energy">   -301.57322719 </i>
    <i name="e_wo_entrp">   -301.57322719 </i>
    <i name="e_0_energy">   -301.57322719 </i>
   </energy>
  </scstep>
  <scstep>
   <time name="dav">   92.91   93.24</time>
   <time name="total">   93.71   94.05</time>
   <energy>
    <i name="e_fr_energy">   -300.97305679 </i>
    <i name="e_wo_entrp">   -300.97305679 </i>
    <i name="e_0_energy">   -300.97305679 </i>
   </energy>
  </scstep>
  <scstep>
   <time name="dav">   78.54   78.61</time>
   <time name="total">   79.34   79.41</time>
   <energy>
    <i name="e_fr_energy">   -300.93006956 </i>
    <i name="e_wo_entrp">   -300.93006956 </i>
    <i name="e_0_energy">   -300.93006956 </i>
   </energy>
  </scstep>
  <scstep>
   <time name="dav">   81.24   81.34</time>
   <time name="total">   82.05   82.14</time>
   <energy>
    <i name="e_fr_energy">   -300.94147234 </i>
    <i name="e_wo_entrp">   -300.94147234 </i>
    <i name="e_0_energy">   -300.94147234 </i>
   </energy>
  </scstep>
  <scstep>
   <time name="dav">   83.71   83.78</time>
   <time name="total">   84.51   84.59</time>
   <energy>
    <i name="e_fr_energy">   -300.94627082 </i>
    <i name="e_wo_entrp">   -300.94627082 </i>
    <i name="e_0_energy">   -300.94627082 </i>
   </energy>
  </scstep>
  <scstep>
   <time name="dav">   86.46   86.53</time>
   <time name="total">   87.26   87.34</time>
   <energy>
    <i name="e_fr_energy">   -300.94727836 </i>
    <i name="e_wo_entrp">   -300.94727836 </i>
    <i name="e_0_energy">   -300.94727836 </i>
   </energy>
  </scstep>
  <scstep>
   <time name="dav">   81.54   81.61</time>
   <time name="total">   82.33   82.42</time>
   <energy>
    <i name="e_fr_energy">   -300.94755122 </i>
    <i name="e_wo_entrp">   -300.94755122 </i>
    <i name="e_0_energy">   -300.94755122 </i>
   </energy>
  </scstep>
  <scstep>
   <time name="dav">   98.30   98.37</time>
   <time name="total">   99.10   99.17</time>
   <energy>
    <i name="e_fr_energy">   -300.94759194 </i>
    <i name="e_wo_entrp">   -300.94759194 </i>
    <i name="e_0_energy">   -300.94759194 </i>
   </energy>
  </scstep>
  <scstep>
   <time name="dav">   78.65   78.67</time>
   <time name="total">   79.45   79.47</time>
   <energy>
    <i name="e_fr_energy">   -300.94760357 </i>
    <i name="e_wo_entrp">   -300.94760357 </i>
    <i name="e_0_energy">   -300.94760357 </i>
   </energy>
  </scstep>
  <scstep>
   <time name="dav">   72.56   72.58</time>
   <time name="total">   73.36   73.38</time>
   <energy>
    <i name="e_fr_energy">   -300.94760601 </i>
    <i name="e_wo_entrp">   -300.94760601 </i>
    <i name="e_0_energy">   -300.94760601 </i>
   </energy>
  </scstep>
  <scstep>
   <time name="dav">   58.81   58.82</time>
   <time name="total">   58.89   58.90</time>
   <energy>
    <i name="alphaZ">   1079.87189334 </i>
    <i name="ewald"> -31114.51765641 </i>
    <i name="hartreedc"> -12943.19491379 </i>
    <i name="XCdc">   1491.75063558 </i>
    <i name="pawpsdc">  43940.29298004 </i>
    <i name="pawaedc"> -43501.29552320 </i>
    <i name="eentropy">      0.00000000 </i>
    <i name="bandstr">  -4427.43153112 </i>
    <i name="atom">  45173.57650906 </i>
    <i name="e_fr_energy">   -300.94760649 </i>
    <i name="e_wo_entrp">   -300.94760649 </i>
    <i name="e_0_energy">   -300.94760649 </i>
   </energy>
  </scstep>
  <structure>
   <crystal>
    <varray name="basis" >
     <v>      11.17850000       0.00000000       0.00000000 </v>
     <v>       0.00000000       9.57460000       0.00000000 </v>
     <v>       0.00000000       0.00000000      11.18240000 </v>
    </varray>
    <i name="volume">   1196.84853820 </i>
    <varray name="rec_basis" >
     <v>       0.08945744       0.00000000       0.00000000 </v>
     <v>       0.00000000       0.10444301       0.00000000 </v>
     <v>       0.00000000       0.00000000       0.08942624 </v>
    </varray>
   </crystal>
   <varray name="positions" >
    <v>       0.37539000       0.00017000       0.43687000 </v>
    <v>       0.12461000       0.99984000       0.18687000 </v>
    <v>       0.37461000       0.00017000       0.18687000 </v>
    <v>       0.87539000       0.00017000       0.43687000 </v>
    <v>       0.62461000       0.99984000       0.18687000 </v>
    <v>       0.87461000       0.00017000       0.18687000 </v>
    <v>       0.12539000       0.99984000       0.93687000 </v>
    <v>       0.37539000       0.00017000       0.93687000 </v>
    <v>       0.12461000       0.99984000       0.68687000 </v>
    <v>       0.62539000       0.99984000       0.93687000 </v>
    <v>       0.87539000       0.00017000       0.93687000 </v>
    <v>       0.62461000       0.99984000       0.68687000 </v>
    <v>       0.37461000       0.00017000       0.68687000 </v>
    <v>       0.87461000       0.00017000       0.68687000 </v>
    <v>       0.00013000       0.29519000       0.06281000 </v>
    <v>       0.25013000       0.70481000       0.06281000 </v>
    <v>       0.24987000       0.29519000       0.31282000 </v>
    <v>       0.49987000       0.70481000       0.31282000 </v>
    <v>       0.50013000       0.29519000       0.06281000 </v>
    <v>       0.75013000       0.70481000       0.06281000 </v>
    <v>       0.74987000       0.29519000       0.31282000 </v>
    <v>       0.99987000       0.70481000       0.31282000 </v>
    <v>       0.00013000       0.29519000       0.56281000 </v>
    <v>       0.25013000       0.70481000       0.56281000 </v>
    <v>       0.24987000       0.29519000       0.81282000 </v>
    <v>       0.49987000       0.70481000       0.81282000 </v>
    <v>       0.50013000       0.29519000       0.56281000 </v>
    <v>       0.75013000       0.70481000       0.56281000 </v>
    <v>       0.74987000       0.29519000       0.81282000 </v>
    <v>       0.99987000       0.70481000       0.81282000 </v>
    <v>       0.25005000       0.32677000       0.06286000 </v>
    <v>       0.00005000       0.67323000       0.06286000 </v>
    <v>       0.49995000       0.32677000       0.31286000 </v>
    <v>       0.24995000       0.67323000       0.31286000 </v>
    <v>       0.75005000       0.32677000       0.06286000 </v>
    <v>       0.50005000       0.67323000       0.06286000 </v>
    <v>       0.99995000       0.32677000       0.31286000 </v>
    <v>       0.74995000       0.67323000       0.31286000 </v>
    <v>       0.25005000       0.32677000       0.56286000 </v>
    <v>       0.00005000       0.67323000       0.56286000 </v>
    <v>       0.49995000       0.32677000       0.81286000 </v>
    <v>       0.24995000       0.67323000       0.81286000 </v>
    <v>       0.75005000       0.32677000       0.56286000 </v>
    <v>       0.50005000       0.67323000       0.56286000 </v>
    <v>       0.99995000       0.32677000       0.81286000 </v>
    <v>       0.74995000       0.67323000       0.81286000 </v>
    <v>       0.49987000       0.07798000       0.06246000 </v>
    <v>       0.24987000       0.92202000       0.06246000 </v>
    <v>       0.25013000       0.07798000       0.31246000 </v>
    <v>       0.00013000       0.92202000       0.31246000 </v>
    <v>       0.99987000       0.07798000       0.06246000 </v>
    <v>       0.74987000       0.92202000       0.06246000 </v>
    <v>       0.75013000       0.07798000       0.31246000 </v>
    <v>       0.50013000       0.92202000       0.31246000 </v>
    <v>       0.49987000       0.07798000       0.56246000 </v>
    <v>       0.24987000       0.92202000       0.56246000 </v>
    <v>       0.25013000       0.07798000       0.81246000 </v>
    <v>       0.00013000       0.92202000       0.81246000 </v>
    <v>       0.99987000       0.07798000       0.56246000 </v>
    <v>       0.74987000       0.92202000       0.56246000 </v>
    <v>       0.75013000       0.07798000       0.81246000 </v>
    <v>       0.50013000       0.92202000       0.81246000 </v>
   </varray>
  </structure>
  <varray name="forces" >
   <v>      -0.00741988      -0.00201664      -0.55472284 </v>
   <v>       0.00961779      -0.00003717       0.56595634 </v>
   <v>       0.00513864      -0.00102001       0.40018766 </v>
   <v>      -0.00741988      -0.00201664      -0.55472284 </v>
   <v>       0.00961779      -0.00003717       0.56595634 </v>
   <v>       0.00513864      -0.00102001       0.40018766 </v>
   <v>      -0.00685039      -0.00054171       0.25121597 </v>
   <v>      -0.00677762      -0.00077572       0.57301006 </v>
   <v>       0.00931373      -0.00133668      -0.56247623 </v>
   <v>      -0.00685039      -0.00054171       0.25121597 </v>
   <v>      -0.00677762      -0.00077572       0.57301006 </v>
   <v>       0.00931373      -0.00133668      -0.56247623 </v>
   <v>       0.01881929      -0.00613881      -0.53683219 </v>
   <v>       0.01881929      -0.00613881      -0.53683219 </v>
   <v>      -0.01547371       0.01026368       0.40178699 </v>
   <v>       0.00351475      -0.01038960       0.40190362 </v>
   <v>      -0.10103335      -1.04286284       0.06274396 </v>
   <v>       0.11568903       1.04003912       0.06263868 </v>
   <v>      -0.01547371       0.01026368       0.40178699 </v>
   <v>       0.00351475      -0.01038960       0.40190362 </v>
   <v>      -0.10103335      -1.04286284       0.06274396 </v>
   <v>       0.11568903       1.04003912       0.06263868 </v>
   <v>       0.17967813       0.04772182      -0.59050095 </v>
   <v>      -0.19154317      -0.04365993      -0.59121521 </v>
   <v>      -0.06148446       1.06887610       0.10898247 </v>
   <v>       0.07082438      -1.06205954       0.10704500 </v>
   <v>       0.17967813       0.04772182      -0.59050095 </v>
   <v>      -0.19154317      -0.04365993      -0.59121521 </v>
   <v>      -0.06148446       1.06887610       0.10898247 </v>
   <v>       0.07082438      -1.06205954       0.10704500 </v>
   <v>      -0.00366014       0.18543102      -0.34423079 </v>
   <v>       0.00235642      -0.18587574      -0.34313201 </v>
   <v>      -0.00587677       0.23772142      -0.00855444 </v>
   <v>       0.00715089      -0.23834360      -0.00972781 </v>
   <v>      -0.00366014       0.18543102      -0.34423079 </v>
   <v>       0.00235642      -0.18587574      -0.34313201 </v>
   <v>      -0.00587677       0.23772142      -0.00855444 </v>
   <v>       0.00715089      -0.23834360      -0.00972781 </v>
   <v>       0.05722452       0.11661795       0.39142690 </v>
   <v>      -0.05803646      -0.11850315       0.38975287 </v>
   <v>      -0.04466933       0.06854128      -0.04180329 </v>
   <v>       0.04558519      -0.06932964      -0.04101359 </v>
   <v>       0.05722452       0.11661795       0.39142690 </v>
   <v>      -0.05803646      -0.11850315       0.38975287 </v>
   <v>      -0.04466933       0.06854128      -0.04180329 </v>
   <v>       0.04558519      -0.06932964      -0.04101359 </v>
   <v>       0.00261618      -0.02688679      -0.32523885 </v>
   <v>       0.00838588       0.02806251      -0.32560270 </v>
   <v>       0.58192455       0.89685745      -0.61583195 </v>
   <v>      -0.59681814      -0.89351407      -0.61565349 </v>
   <v>       0.00261618      -0.02688679      -0.32523885 </v>
   <v>       0.00838588       0.02806251      -0.32560270 </v>
   <v>       0.58192455       0.89685745      -0.61583195 </v>
   <v>      -0.59681814      -0.89351407      -0.61565349 </v>
   <v>      -1.03392234      -0.10491631       1.36084383 </v>
   <v>       1.03655011       0.10405564       1.35802001 </v>
   <v>       0.47293880      -0.90125958      -0.46003498 </v>
   <v>      -0.49376254       0.90527953      -0.46894302 </v>
   <v>      -1.03392234      -0.10491631       1.36084383 </v>
   <v>       1.03655011       0.10405564       1.35802001 </v>
   <v>       0.47293880      -0.90125958      -0.46003498 </v>
   <v>      -0.49376254       0.90527953      -0.46894302 </v>
  </varray>
  <varray name="stress" >
   <v>      -6.90543399       0.22695101      -0.03524505 </v>
   <v>       0.22695099     -14.34307474       0.04979051 </v>
   <v>      -0.03524507       0.04978969      -8.10854688 </v>
  </varray>
  <energy>
   <i name="e_fr_energy">   -316.90145200 </i>
   <i name="e_wo_entrp">   -316.90145200 </i>
   <i name="e_0_energy">      0.00000000 </i>
  </energy>
  <time name="totalsc"> 1585.37 1588.24</time>
 </calculation>
 <calculation>
  <scstep>
   <time name="dav">   67.14   67.38</time>
   <time name="total">   67.94   68.19</time>
   <energy>
    <i name="alphaZ">   1098.51645560 </i>
    <i name="ewald"> -31288.61534884 </i>
    <i name="hartreedc"> -13013.78306612 </i>
    <i name="XCdc">   1501.87926440 </i>
    <i name="pawpsdc">  43940.29306371 </i>
    <i name="pawaedc"> -43501.30105092 </i>
    <i name="eentropy">      0.00000000 </i>
    <i name="bandstr">  -4211.51721497 </i>
    <i name="atom">  45173.57650906 </i>
    <i name="e_fr_energy">   -300.95138807 </i>
    <i name="e_wo_entrp">   -300.95138807 </i>
    <i name="e_0_energy">   -300.95138807 </i>
   </energy>
  </scstep>
  <scstep>
   <time name="dav">   71.60   71.92</time>
   <time name="total">   72.40   72.73</time>
   <energy>
    <i name="e_fr_energy">   -302.05714140 </i>
    <i name="e_wo_entrp">   -302.05714140 </i>
    <i name="e_0_energy">   -302.05714140 </i>
   </energy>
  </scstep>
  <scstep>
   <time name="dav">   88.18   88.61</time>
   <time name="total">   88.98   89.41</time>
   <energy>
    <i name="e_fr_energy">   -301.83482549 </i>
    <i name="e_wo_entrp">   -301.83482549 </i>
    <i name="e_0_energy">   -301.83482549 </i>
   </energy>
  </scstep>
  <scstep>
   <time name="dav">   82.53   82.83</time>
   <time name="total">   83.33   83.63</time>
   <energy>
    <i name="e_fr_energy">   -301.75768310 </i>
    <i name="e_wo_entrp">   -301.75768310 </i>
    <i name="e_0_energy">   -301.75768310 </i>
   </energy>
  </scstep>
  <scstep>
   <time name="dav">   86.74   87.18</time>
   <time name="total">   87.54   87.98</time>
   <energy>
    <i name="e_fr_energy">   -301.76132854 </i>
    <i name="e_wo_entrp">   -301.76132854 </i>
    <i name="e_0_energy">   -301.76132854 </i>
   </energy>
  </scstep>
  <scstep>
   <time name="dav">   95.89   96.40</time>
   <time name="total">   96.69   97.21</time>
   <energy>
    <i name="e_fr_energy">   -301.76000649 </i>
    <i name="e_wo_entrp">   -301.76000649 </i>
    <i name="e_0_energy">   -301.76000649 </i>
   </energy>
  </scstep>
  <scstep>
   <time name="dav">   82.63   82.89</time>
   <time name="total">   83.42   83.70</time>
   <energy>
    <i name="e_fr_energy">   -301.75933279 </i>
    <i name="e_wo_entrp">   -301.75933279 </i>
    <i name="e_0_energy">   -301.75933279 </i>
   </energy>
  </scstep>
  <scstep>
   <time name="dav">   96.69   97.03</time>
   <time name="total">   97.49   97.84</time>
   <energy>
    <i name="e_fr_energy">   -301.75937978 </i>
    <i name="e_wo_entrp">   -301.75937978 </i>
    <i name="e_0_energy">   -301.75937978 </i>
   </energy>
  </scstep>
  <scstep>
   <time name="dav">   81.48   81.72</time>
   <time name="total">   82.28   82.54</time>
   <energy>
    <i name="e_fr_energy">   -301.75939984 </i>
    <i name="e_wo_entrp">   -301.75939984 </i>
    <i name="e_0_energy">   -301.75939984 </i>
   </energy>
  </scstep>
  <scstep>
   <time name="dav">   80.62   80.86</time>
   <time name="total">   81.42   81.67</time>
   <energy>
    <i name="e_fr_energy">   -301.75940235 </i>
    <i name="e_wo_entrp">   -301.75940235 </i>
    <i name="e_0_energy">   -301.75940235 </i>
   </energy>
  </scstep>
  <scstep>
   <time name="dav">   76.95   77.07</time>
   <time name="total">   77.75   77.88</time>
   <energy>
    <i name="e_fr_energy">   -301.75940078 </i>
    <i name="e_wo_entrp">   -301.75940078 </i>
    <i name="e_0_energy">   -301.75940078 </i>
   </energy>
  </scstep>
  <scstep>
   <time name="dav">   66.80   66.85</time>
   <time name="total">   66.88   66.93</time>
   <energy>
    <i name="alphaZ">   1098.51645560 </i>
    <i name="ewald"> -31288.61534884 </i>
    <i name="hartreedc"> -12855.22360209 </i>
    <i name="XCdc">   1494.53522032 </i>
    <i name="pawpsdc">  44293.25172490 </i>
    <i name="pawaedc"> -43856.87615202 </i>
    <i name="eentropy">      0.00000000 </i>
    <i name="bandstr">  -4360.92420785 </i>
    <i name="atom">  45173.57650906 </i>
    <i name="e_fr_energy">   -301.75940092 </i>
    <i name="e_wo_entrp">   -301.75940092 </i>
    <i name="e_0_energy">   -301.75940092 </i>
   </energy>
  </scstep>
  <structure>
   <crystal>
    <varray name="basis" >
     <v>      11.13363139       0.00147463      -0.00022901 </v>
     <v>       0.00126305       9.49477645       0.00027710 </v>
     <v>      -0.00022909       0.00032363      11.12969569 </v>
    </varray>
    <i name="volume">   1176.53503541 </i>
    <varray name="rec_basis" >
     <v>       0.08981796      -0.00001195       0.00000185 </v>
     <v>      -0.00001395       0.10532107      -0.00000306 </v>
     <v>       0.00000185      -0.00000262       0.08984972 </v>
    </varray>
   </crystal>
   <varray name="positions" >
    <v>       0.37535798       0.00015984       0.43447684 </v>
    <v>       0.12465151       0.99983981       0.18931163 </v>
    <v>       0.37463218       0.00016486       0.18859647 </v>
    <v>       0.87535798       0.00015984       0.43447684 </v>
    <v>       0.62465151       0.99983981       0.18931163 </v>
    <v>       0.87463218       0.00016486       0.18859647 </v>
    <v>       0.12536044       0.99983727       0.93795379 </v>
    <v>       0.37536075       0.00016609       0.93934206 </v>
    <v>       0.12465019       0.99983326       0.68444339 </v>
    <v>       0.62536044       0.99983727       0.93795379 </v>
    <v>       0.87536075       0.00016609       0.93934206 </v>
    <v>       0.62465019       0.99983326       0.68444339 </v>
    <v>       0.37469122       0.00013907       0.68455402 </v>
    <v>       0.87469122       0.00013907       0.68455402 </v>
    <v>       0.00006322       0.29524171       0.06454337 </v>
    <v>       0.25014517       0.70475765       0.06454388 </v>
    <v>       0.24943397       0.28993542       0.31309069 </v>
    <v>       0.50036928       0.71005035       0.31309023 </v>
    <v>       0.50006322       0.29524171       0.06454337 </v>
    <v>       0.75014517       0.70475765       0.06454388 </v>
    <v>       0.74943397       0.28993542       0.31309069 </v>
    <v>       0.00036928       0.71005035       0.31309023 </v>
    <v>       0.00090543       0.29543045       0.56026248 </v>
    <v>       0.24930336       0.70459001       0.56025940 </v>
    <v>       0.24960465       0.30057565       0.81329017 </v>
    <v>       0.50017565       0.69945870       0.81328181 </v>
    <v>       0.50090543       0.29543045       0.56026248 </v>
    <v>       0.74930336       0.70459001       0.56025940 </v>
    <v>       0.74960465       0.30057565       0.81329017 </v>
    <v>       0.00017565       0.69945870       0.81328181 </v>
    <v>       0.25003420       0.32770431       0.06137493 </v>
    <v>       0.00006017       0.67229345       0.06137967 </v>
    <v>       0.49992464       0.32796779       0.31282309 </v>
    <v>       0.24998086       0.67202908       0.31281803 </v>
    <v>       0.75003420       0.32770431       0.06137493 </v>
    <v>       0.50006017       0.67229345       0.06137967 </v>
    <v>       0.99992464       0.32796779       0.31282309 </v>
    <v>       0.74998086       0.67202908       0.31281803 </v>
    <v>       0.25029696       0.32735759       0.56454868 </v>
    <v>      -0.00020047       0.67263291       0.56454146 </v>
    <v>       0.49975722       0.32711535       0.81267965 </v>
    <v>       0.25014673       0.67288068       0.81268306 </v>
    <v>       0.75029696       0.32735759       0.56454868 </v>
    <v>       0.49979953       0.67263291       0.56454146 </v>
    <v>       0.99975722       0.32711535       0.81267965 </v>
    <v>       0.75014673       0.67288068       0.81268306 </v>
    <v>       0.49988129       0.07784453       0.06105687 </v>
    <v>       0.24990619       0.92216140       0.06105530 </v>
    <v>       0.25264139       0.08249891       0.30980320 </v>
    <v>      -0.00244567       0.91751793       0.30980397 </v>
    <v>       0.99988129       0.07784453       0.06105687 </v>
    <v>       0.74990619       0.92216140       0.06105530 </v>
    <v>       0.75264139       0.08249891       0.30980320 </v>
    <v>       0.49755433       0.91751793       0.30980397 </v>
    <v>       0.49540794       0.07745137       0.56833090 </v>
    <v>       0.25434340       0.92254430       0.56831871 </v>
    <v>       0.25217105       0.07343891       0.81047534 </v>
    <v>      -0.00200091       0.92658135       0.81043691 </v>
    <v>       0.99540794       0.07745137       0.56833090 </v>
    <v>       0.75434340       0.92254430       0.56831871 </v>
    <v>       0.75217105       0.07343891       0.81047534 </v>
    <v>       0.49799909       0.92658135       0.81043691 </v>
   </varray>
  </structure>
  <varray name="forces" >
   <v>      -0.00526256      -0.00126543      -0.29081148 </v>
   <v>       0.00762232       0.00123652       0.34899946 </v>
   <v>       0.00636569      -0.00273207       0.18073513 </v>
   <v>      -0.00526256      -0.00126543      -0.29081148 </v>
   <v>       0.00762232       0.00123652       0.34899946 </v>
   <v>       0.00636569      -0.00273207       0.18073513 </v>
   <v>      -0.00689151       0.00174259       0.01870488 </v>
   <v>      -0.00874032      -0.00190670       0.24665196 </v>
   <v>       0.00985793      -0.00031846      -0.30967964 </v>
   <v>      -0.00689151       0.00174259       0.01870488 </v>
   <v>      -0.00874032      -0.00190670       0.24665196 </v>
   <v>       0.00985793      -0.00031846      -0.30967964 </v>
   <v>       0.01813140      -0.00250339       0.24586022 </v>
   <v>       0.01813140      -0.00250339       0.24586022 </v>
   <v>      -0.01795660       0.27104471       0.10134566 </v>
   <v>       0.00880365      -0.27071021       0.10203413 </v>
   <v>      -0.08991396       1.20233534       0.06394163 </v>
   <v>       0.09777289      -1.19989502       0.06352160 </v>
   <v>      -0.01795660       0.27104471       0.10134566 </v>
   <v>       0.00880365      -0.27071021       0.10203413 </v>
   <v>      -0.08991396       1.20233534       0.06394163 </v>
   <v>       0.09777289      -1.19989502       0.06352160 </v>
   <v>       0.11090810       0.16918220      -0.21636665 </v>
   <v>      -0.12065746      -0.16942159      -0.21775333 </v>
   <v>      -0.00801907      -0.08676516       0.04309936 </v>
   <v>       0.01653251       0.08842808       0.04222627 </v>
   <v>       0.11090810       0.16918220      -0.21636665 </v>
   <v>      -0.12065746      -0.16942159      -0.21775333 </v>
   <v>      -0.00801907      -0.08676516       0.04309936 </v>
   <v>       0.01653251       0.08842808       0.04222627 </v>
   <v>      -0.00590098       0.18724035      -0.14314916 </v>
   <v>       0.00543526      -0.18721208      -0.14303455 </v>
   <v>      -0.01426931       0.14708399      -0.00472840 </v>
   <v>       0.01439208      -0.14771897      -0.00582955 </v>
   <v>      -0.00590098       0.18724035      -0.14314916 </v>
   <v>       0.00543526      -0.18721208      -0.14303455 </v>
   <v>      -0.01426931       0.14708399      -0.00472840 </v>
   <v>       0.01439208      -0.14771897      -0.00582955 </v>
   <v>       0.04700864       0.13986769       0.17662135 </v>
   <v>      -0.04739384      -0.14117555       0.17608592 </v>
   <v>      -0.02753784       0.20082268      -0.02848731 </v>
   <v>       0.02814384      -0.20109698      -0.02809740 </v>
   <v>       0.04700864       0.13986769       0.17662135 </v>
   <v>      -0.04739384      -0.14117555       0.17608592 </v>
   <v>      -0.02753784       0.20082268      -0.02848731 </v>
   <v>       0.02814384      -0.20109698      -0.02809740 </v>
   <v>       0.02019687      -0.25238506      -0.02598779 </v>
   <v>      -0.00902110       0.25247871      -0.02647484 </v>
   <v>       0.49605686      -1.32998898      -0.51342523 </v>
   <v>      -0.50541609       1.32826854      -0.51429224 </v>
   <v>       0.02019687      -0.25238506      -0.02598779 </v>
   <v>      -0.00902110       0.25247871      -0.02647484 </v>
   <v>       0.49605686      -1.32998898      -0.51342523 </v>
   <v>      -0.50541609       1.32826854      -0.51429224 </v>
   <v>      -0.56703664      -0.00290788       0.56947379 </v>
   <v>       0.56626355       0.00335376       0.56697554 </v>
   <v>       0.22376925       0.34304219      -0.23466090 </v>
   <v>      -0.24324355      -0.33812383      -0.24349840 </v>
   <v>      -0.56703664      -0.00290788       0.56947379 </v>
   <v>       0.56626355       0.00335376       0.56697554 </v>
   <v>       0.22376925       0.34304219      -0.23466090 </v>
   <v>      -0.24324355      -0.33812383      -0.24349840 </v>
  </varray>
  <varray name="stress" >
   <v>       5.10208196       0.74906295      -0.01787538 </v>
   <v>       0.74906280       6.28108447       0.04648148 </v>
   <v>      -0.01787524       0.04648123       6.06257169 </v>
  </varray>
  <energy>
   <i name="e_fr_energy">   -317.92236954 </i>
   <i name="e_wo_entrp">   -317.92236954 </i>
   <i name="e_0_energy">      0.00000000 </i>
  </energy>
  <time name="totalsc"> 1099.73 1103.46</time>
 </calculation>
 <calculation>
  <scstep>
   <time name="dav">   76.16   76.29</time>
   <time name="total">   76.96   77.09</time>
   <energy>
    <i name="alphaZ">   1098.08784183 </i>
    <i name="ewald"> -31284.90608786 </i>
    <i name="hartreedc"> -12853.41345685 </i>
    <i name="XCdc">   1494.30116337 </i>
    <i name="pawpsdc">  44293.30652800 </i>
    <i name="pawaedc"> -43856.93710725 </i>
    <i name="eentropy">      0.00000000 </i>
    <i name="bandstr">  -4365.78056544 </i>
    <i name="atom">  45173.57650906 </i>
    <i name="e_fr_energy">   -301.76517514 </i>
    <i name="e_wo_entrp">   -301.76517514 </i>
    <i name="e_0_energy">   -301.76517514 </i>
   </energy>
  </scstep>
  <scstep>
   <time name="dav">   73.84   73.97</time>
   <time name="total">   74.64   74.77</time>
   <energy>
    <i name="e_fr_energy">   -301.76547006 </i>
    <i name="e_wo_entrp">   -301.76547006 </i>
    <i name="e_0_energy">   -301.76547006 </i>
   </energy>
  </scstep>
  <scstep>
   <time name="dav">   89.73   89.84</time>
   <time name="total">   90.53   90.64</time>
   <energy>
    <i name="e_fr_energy">   -301.76534993 </i>
    <i name="e_wo_entrp">   -301.76534993 </i>
    <i name="e_0_energy">   -301.76534993 </i>
   </energy>
  </scstep>
  <scstep>
   <time name="dav">   85.26   85.40</time>
   <time name="total">   86.04   86.20</time>
   <energy>
    <i name="e_fr_energy">   -301.76531588 </i>
    <i name="e_wo_entrp">   -301.76531588 </i>
    <i name="e_0_energy">   -301.76531588 </i>
   </energy>
  </scstep>
  <scstep>
   <time name="dav">   81.04   81.20</time>
   <time name="total">   81.84   82.00</time>
   <energy>
    <i name="e_fr_energy">   -301.76531129 </i>
    <i name="e_wo_entrp">   -301.76531129 </i>
    <i name="e_0_energy">   -301.76531129 </i>
   </energy>
  </scstep>
  <scstep>
   <time name="dav">   65.13   65.28</time>
   <time name="total">   65.93   66.08</time>
   <energy>
    <i name="e_fr_energy">   -301.76530814 </i>
    <i name="e_wo_entrp">   -301.76530814 </i>
    <i name="e_0_energy">   -301.76530814 </i>
   </energy>
  </scstep>
  <scstep>
   <time name="dav">   51.79   51.89</time>
   <time name="total">   52.59   52.69</time>
   <energy>
    <i name="e_fr_energy">   -301.76530450 </i>
    <i name="e_wo_entrp">   -301.76530450 </i>
    <i name="e_0_energy">   -301.76530450 </i>
   </energy>
  </scstep>
  <scstep>
   <time name="dav">   47.07   47.12</time>
   <time name="total">   47.15   47.20</time>
   <energy>
    <i name="alphaZ">   1098.08784183 </i>
    <i name="ewald"> -31284.90608786 </i>
    <i name="hartreedc"> -12857.03542279 </i>
    <i name="XCdc">   1494.46984047 </i>
    <i name="pawpsdc">  44284.26920422 </i>
    <i name="pawaedc"> -43847.82506594 </i>
    <i name="eentropy">      0.00000000 </i>
    <i name="bandstr">  -4362.40212334 </i>
    <i name="atom">  45173.57650906 </i>
    <i name="e_fr_energy">   -301.76530435 </i>
    <i name="e_wo_entrp">   -301.76530435 </i>
    <i name="e_0_energy">   -301.76530435 </i>
   </energy>
  </scstep>
  <structure>
   <crystal>
    <varray name="basis" >
     <v>      11.13465111       0.00144112      -0.00022380 </v>
     <v>       0.00123435       9.49659059       0.00027080 </v>
     <v>      -0.00022388       0.00031627      11.13089349 </v>
    </varray>
    <i name="volume">   1176.99426927 </i>
    <varray name="rec_basis" >
     <v>       0.08980973      -0.00001167       0.00000181 </v>
     <v>      -0.00001363       0.10530095      -0.00000299 </v>
     <v>       0.00000181      -0.00000256       0.08984005 </v>
    </varray>
   </crystal>
   <varray name="positions" >
    <v>       0.37535871       0.00016007       0.43453148 </v>
    <v>       0.12465056       0.99983982       0.18925587 </v>
    <v>       0.37463167       0.00016498       0.18855705 </v>
    <v>       0.87535871       0.00016007       0.43453148 </v>
    <v>       0.62465056       0.99983982       0.18925587 </v>
    <v>       0.87463167       0.00016498       0.18855705 </v>
    <v>       0.12536111       0.99983733       0.93792904 </v>
    <v>       0.37536142       0.00016618       0.93928561 </v>
    <v>       0.12464928       0.99983342       0.68449880 </v>
    <v>       0.62536111       0.99983733       0.93792904 </v>
    <v>       0.87536142       0.00016618       0.93928561 </v>
    <v>       0.62464928       0.99983342       0.68449880 </v>
    <v>       0.37468937       0.00013978       0.68460690 </v>
    <v>       0.87468937       0.00013978       0.68460690 </v>
    <v>       0.00006474       0.29524053       0.06450379 </v>
    <v>       0.25014482       0.70475885       0.06450428 </v>
    <v>       0.24944391       0.29005585       0.31308450 </v>
    <v>       0.50035790       0.70993025       0.31308407 </v>
    <v>       0.50006474       0.29524053       0.06450379 </v>
    <v>       0.75014482       0.70475885       0.06450428 </v>
    <v>       0.74944391       0.29005585       0.31308450 </v>
    <v>       0.00035790       0.70993025       0.31308407 </v>
    <v>       0.00088774       0.29542494       0.56032066 </v>
    <v>       0.24932223       0.70459505       0.56031765 </v>
    <v>       0.24961072       0.30045222       0.81327943 </v>
    <v>       0.50016867       0.69958134       0.81327126 </v>
    <v>       0.50088774       0.29542494       0.56032066 </v>
    <v>       0.74932223       0.70459505       0.56031765 </v>
    <v>       0.74961072       0.30045222       0.81327943 </v>
    <v>       0.00016867       0.69958134       0.81327126 </v>
    <v>       0.25003457       0.32768290       0.06140884 </v>
    <v>       0.00005994       0.67231491       0.06141348 </v>
    <v>       0.49992522       0.32794033       0.31282394 </v>
    <v>       0.24998015       0.67205660       0.31281899 </v>
    <v>       0.75003457       0.32768290       0.06140884 </v>
    <v>       0.50005994       0.67231491       0.06141348 </v>
    <v>       0.99992522       0.32794033       0.31282394 </v>
    <v>       0.74998015       0.67205660       0.31281899 </v>
    <v>       0.25029133       0.32734413       0.56451012 </v>
    <v>      -0.00019475       0.67264659       0.56450306 </v>
    <v>       0.49976162       0.32710744       0.81268377 </v>
    <v>       0.25014224       0.67288868       0.81268710 </v>
    <v>       0.75029133       0.32734413       0.56451012 </v>
    <v>       0.49980525       0.67264659       0.56450306 </v>
    <v>       0.99976162       0.32710744       0.81268377 </v>
    <v>       0.75014224       0.67288868       0.81268710 </v>
    <v>       0.49988103       0.07784763       0.06108891 </v>
    <v>       0.24990537       0.92215815       0.06108737 </v>
    <v>       0.25258410       0.08239536       0.30986387 </v>
    <v>      -0.00238690       0.91762110       0.30986462 </v>
    <v>       0.99988103       0.07784763       0.06108891 </v>
    <v>       0.74990537       0.92215815       0.06108737 </v>
    <v>       0.75258410       0.08239536       0.30986387 </v>
    <v>       0.49761310       0.91762110       0.30986462 </v>
    <v>       0.49550975       0.07746347       0.56819684 </v>
    <v>       0.25424132       0.92253230       0.56818493 </v>
    <v>       0.25212446       0.07354298       0.81052065 </v>
    <v>      -0.00195228       0.92647680       0.81048311 </v>
    <v>       0.99550975       0.07746347       0.56819684 </v>
    <v>       0.75424132       0.92253230       0.56818493 </v>
    <v>       0.75212446       0.07354298       0.81052065 </v>
    <v>       0.49804772       0.92647680       0.81048311 </v>
   </varray>
  </structure>
  <varray name="forces" >
   <v>      -0.00530641      -0.00127991      -0.29697676 </v>
   <v>       0.00767341       0.00120871       0.35409857 </v>
   <v>       0.00634232      -0.00269029       0.18610534 </v>
   <v>      -0.00530641      -0.00127991      -0.29697676 </v>
   <v>       0.00767341       0.00120871       0.35409857 </v>
   <v>       0.00634232      -0.00269029       0.18610534 </v>
   <v>      -0.00689291       0.00169020       0.02422864 </v>
   <v>      -0.00870196      -0.00188063       0.25423325 </v>
   <v>       0.00984507      -0.00034135      -0.31567983 </v>
   <v>      -0.00689291       0.00169020       0.02422864 </v>
   <v>      -0.00870196      -0.00188063       0.25423325 </v>
   <v>       0.00984507      -0.00034135      -0.31567983 </v>
   <v>       0.01820648      -0.00258746       0.22443836 </v>
   <v>       0.01820648      -0.00258746       0.22443836 </v>
   <v>      -0.01791085       0.26472390       0.10837243 </v>
   <v>       0.00868190      -0.26440153       0.10904464 </v>
   <v>      -0.08936050       1.13699859       0.06294694 </v>
   <v>       0.09740758      -1.13475049       0.06254370 </v>
   <v>      -0.01791085       0.26472390       0.10837243 </v>
   <v>       0.00868190      -0.26440153       0.10904464 </v>
   <v>      -0.08936050       1.13699859       0.06294694 </v>
   <v>       0.09740758      -1.13475049       0.06254370 </v>
   <v>       0.11253679       0.16693643      -0.22524043 </v>
   <v>      -0.12233599      -0.16708026      -0.22660505 </v>
   <v>      -0.00932937      -0.06458344       0.04490716 </v>
   <v>       0.01789102       0.06632778       0.04400819 </v>
   <v>       0.11253679       0.16693643      -0.22524043 </v>
   <v>      -0.12233599      -0.16708026      -0.22660505 </v>
   <v>      -0.00932937      -0.06458344       0.04490716 </v>
   <v>       0.01789102       0.06632778       0.04400819 </v>
   <v>      -0.00584421       0.18732918      -0.14798854 </v>
   <v>       0.00536337      -0.18731053      -0.14784934 </v>
   <v>      -0.01392319       0.14924403      -0.00465425 </v>
   <v>       0.01406761      -0.14988019      -0.00575926 </v>
   <v>      -0.00584421       0.18732918      -0.14798854 </v>
   <v>       0.00536337      -0.18731053      -0.14784934 </v>
   <v>      -0.01392319       0.14924403      -0.00465425 </v>
   <v>       0.01406761      -0.14988019      -0.00575926 </v>
   <v>       0.04719160       0.13943125       0.18166142 </v>
   <v>      -0.04757990      -0.14074399       0.18110021 </v>
   <v>      -0.02795362       0.19808052      -0.02885434 </v>
   <v>       0.02856867      -0.19836765      -0.02845476 </v>
   <v>       0.04719160       0.13943125       0.18166142 </v>
   <v>      -0.04757990      -0.14074399       0.18110021 </v>
   <v>      -0.02795362       0.19808052      -0.02885434 </v>
   <v>       0.02856867      -0.19836765      -0.02845476 </v>
   <v>       0.01977090      -0.24699297      -0.03274060 </v>
   <v>      -0.00859591       0.24711263      -0.03322635 </v>
   <v>       0.49728872      -1.26530612      -0.51503380 </v>
   <v>      -0.50679379       1.26377053      -0.51588282 </v>
   <v>       0.01977090      -0.24699297      -0.03274060 </v>
   <v>      -0.00859591       0.24711263      -0.03322635 </v>
   <v>       0.49728872      -1.26530612      -0.51503380 </v>
   <v>      -0.50679379       1.26377053      -0.51588282 </v>
   <v>      -0.58036688      -0.00769104       0.58988561 </v>
   <v>       0.57961478       0.00809762       0.58734197 </v>
   <v>       0.23013811       0.31864909      -0.24055012 </v>
   <v>      -0.24969283      -0.31371261      -0.24942019 </v>
   <v>      -0.58036688      -0.00769104       0.58988561 </v>
   <v>       0.57961478       0.00809762       0.58734197 </v>
   <v>       0.23013811       0.31864909      -0.24055012 </v>
   <v>      -0.24969283      -0.31371261      -0.24942019 </v>
  </varray>
  <varray name="stress" >
   <v>       4.76579881       0.73831080      -0.01804264 </v>
   <v>       0.73831052       5.59209513       0.04635412 </v>
   <v>      -0.01804242       0.04635455       5.67092545 </v>
  </varray>
  <energy>
   <i name="e_fr_energy">   -317.92334552 </i>
   <i name="e_wo_entrp">   -317.92334552 </i>
   <i name="e_0_energy">      0.00000000 </i>
  </energy>
  <time name="totalsc">  689.31  690.47</time>
 </calculation>
 <calculation>
  <scstep>
   <time name="dav">   64.97   65.10</time>
   <time name="total">   65.77   65.90</time>
   <energy>
    <i name="alphaZ">   1097.09360491 </i>
    <i name="ewald"> -31386.12484377 </i>
    <i name="hartreedc"> -12749.18911041 </i>
    <i name="XCdc">   1493.31986879 </i>
    <i name="pawpsdc">  44284.21928146 </i>
    <i name="pawaedc"> -43847.77529876 </i>
    <i name="eentropy">      0.00000000 </i>
    <i name="bandstr">  -4366.27085707 </i>
    <i name="atom">  45173.57650906 </i>
    <i name="e_fr_energy">   -301.15084578 </i>
    <i name="e_wo_entrp">   -301.15084578 </i>
    <i name="e_0_energy">   -301.15084578 </i>
   </energy>
  </scstep>
  <scstep>
   <time name="dav">   75.72   75.75</time>
   <time name="total">   76.52   76.55</time>
   <energy>
    <i name="e_fr_energy">   -302.26716512 </i>
    <i name="e_wo_entrp">   -302.26716512 </i>
    <i name="e_0_energy">   -302.26716512 </i>
   </energy>
  </scstep>
  <scstep>
   <time name="dav">   96.36   96.35</time>
   <time name="total">   97.16   97.16</time>
   <energy>
    <i name="e_fr_energy">   -302.25255969 </i>
    <i name="e_wo_entrp">   -302.25255969 </i>
    <i name="e_0_energy">   -302.25255969 </i>
   </energy>
  </scstep>
  <scstep>
   <time name="dav">   79.34   79.34</time>
   <time name="total">   80.15   80.15</time>
   <energy>
    <i name="e_fr_energy">   -302.22962510 </i>
    <i name="e_wo_entrp">   -302.22962510 </i>
    <i name="e_0_energy">   -302.22962510 </i>
   </energy>
  </scstep>
  <scstep>
   <time name="dav">   82.78   82.83</time>
   <time name="total">   83.58   83.63</time>
   <energy>
    <i name="e_fr_energy">   -302.21790913 </i>
    <i name="e_wo_entrp">   -302.21790913 </i>
    <i name="e_0_energy">   -302.21790913 </i>
   </energy>
  </scstep>
  <scstep>
   <time name="dav">   81.37   81.39</time>
   <time name="total">   82.17   82.19</time>
   <energy>
    <i name="e_fr_energy">   -302.21863514 </i>
    <i name="e_wo_entrp">   -302.21863514 </i>
    <i name="e_0_energy">   -302.21863514 </i>
   </energy>
  </scstep>
  <scstep>
   <time name="dav">   91.01   91.02</time>
   <time name="total">   91.81   91.83</time>
   <energy>
    <i name="e_fr_energy">   -302.21855661 </i>
    <i name="e_wo_entrp">   -302.21855661 </i>
    <i name="e_0_energy">   -302.21855661 </i>
   </energy>
  </scstep>
  <scstep>
   <time name="dav">   86.30   86.40</time>
   <time name="total">   87.10   87.21</time>
   <energy>
    <i name="e_fr_energy">   -302.21848187 </i>
    <i name="e_wo_entrp">   -302.21848187 </i>
    <i name="e_0_energy">   -302.21848187 </i>
   </energy>
  </scstep>
  <scstep>
   <time name="dav">   76.98   77.18</time>
   <time name="total">   77.78   77.99</time>
   <energy>
    <i name="e_fr_energy">   -302.21848422 </i>
    <i name="e_wo_entrp">   -302.21848422 </i>
    <i name="e_0_energy">   -302.21848422 </i>
   </energy>
  </scstep>
  <scstep>
   <time name="dav">   78.48   78.63</time>
   <time name="total">   79.28   79.43</time>
   <energy>
    <i name="e_fr_energy">   -302.21848872 </i>
    <i name="e_wo_entrp">   -302.21848872 </i>
    <i name="e_0_energy">   -302.21848872 </i>
   </energy>
  </scstep>
  <scstep>
   <time name="dav">   72.36   72.39</time>
   <time name="total">   72.43   72.47</time>
   <energy>
    <i name="alphaZ">   1097.09360491 </i>
    <i name="ewald"> -31386.12484377 </i>
    <i name="hartreedc"> -12753.42562615 </i>
    <i name="XCdc">   1493.50418267 </i>
    <i name="pawpsdc">  44089.20759352 </i>
    <i name="pawaedc"> -43649.82504386 </i>
    <i name="eentropy">      0.00000000 </i>
    <i name="bandstr">  -4366.22486594 </i>
    <i name="atom">  45173.57650906 </i>
    <i name="e_fr_energy">   -302.21848954 </i>
    <i name="e_wo_entrp">   -302.21848954 </i>
    <i name="e_0_energy">   -302.21848954 </i>
   </energy>
  </scstep>
  <structure>
   <crystal>
    <varray name="basis" >
     <v>      11.14333488       0.00682471      -0.00044807 </v>
     <v>       0.00582792       9.48870054       0.00065381 </v>
     <v>      -0.00044794       0.00076455      11.14155969 </v>
    </varray>
    <i name="volume">   1178.06091586 </i>
    <varray name="rec_basis" >
     <v>       0.08973978      -0.00005512       0.00000361 </v>
     <v>      -0.00006455       0.10538855      -0.00000723 </v>
     <v>       0.00000361      -0.00000619       0.08975404 </v>
    </varray>
   </crystal>
   <varray name="positions" >
    <v>       0.37532030       0.00014875       0.43209296 </v>
    <v>       0.12470377       0.99984574       0.19196428 </v>
    <v>       0.37466978       0.00014882       0.19019484 </v>
    <v>       0.87532030       0.00014875       0.43209296 </v>
    <v>       0.62470377       0.99984574       0.19196428 </v>
    <v>       0.87466978       0.00014882       0.19019484 </v>
    <v>       0.12531711       0.99984454       0.93855765 </v>
    <v>       0.37530980       0.00015471       0.94157787 </v>
    <v>       0.12471111       0.99982850       0.68196341 </v>
    <v>       0.62531711       0.99984454       0.93855765 </v>
    <v>       0.87530980       0.00015471       0.94157787 </v>
    <v>       0.62471111       0.99982850       0.68196341 </v>
    <v>       0.37480714       0.00011167       0.68445531 </v>
    <v>       0.87480714       0.00011167       0.68445531 </v>
    <v>      -0.00004490       0.29660428       0.06580951 </v>
    <v>       0.25018977       0.70339634       0.06581322 </v>
    <v>       0.24884745       0.29325564       0.31348689 </v>
    <v>       0.50101964       0.70673489       0.31348467 </v>
    <v>       0.49995510       0.29660428       0.06580951 </v>
    <v>       0.75018977       0.70339634       0.06581322 </v>
    <v>       0.74884745       0.29325564       0.31348689 </v>
    <v>       0.00101964       0.70673489       0.31348467 </v>
    <v>       0.00174767       0.29638575       0.55811699 </v>
    <v>       0.24839520       0.70364360       0.55810661 </v>
    <v>       0.24944202       0.30273923       0.81370048 </v>
    <v>       0.50039379       0.69731978       0.81368450 </v>
    <v>       0.50174767       0.29638575       0.55811699 </v>
    <v>       0.74839520       0.70364360       0.55810661 </v>
    <v>       0.74944202       0.30273923       0.81370048 </v>
    <v>       0.00039379       0.69731978       0.81368450 </v>
    <v>       0.25000155       0.32908367       0.06005220 </v>
    <v>       0.00008811       0.67091324       0.06005980 </v>
    <v>       0.49985276       0.32927633       0.31278598 </v>
    <v>       0.25005589       0.67071587       0.31277388 </v>
    <v>       0.75000155       0.32908367       0.06005220 </v>
    <v>       0.50008811       0.67091324       0.06005980 </v>
    <v>       0.99985276       0.32927633       0.31278598 </v>
    <v>       0.75005589       0.67071587       0.31277388 </v>
    <v>       0.25061412       0.32833427       0.56611044 </v>
    <v>      -0.00052085       0.67164510       0.56609751 </v>
    <v>       0.49954777       0.32827675       0.81247204 </v>
    <v>       0.25036065       0.67171601       0.81247881 </v>
    <v>       0.75061412       0.32833427       0.56611044 </v>
    <v>       0.49947915       0.67164510       0.56609751 </v>
    <v>       0.99954777       0.32827675       0.81247204 </v>
    <v>       0.75036065       0.67171601       0.81247881 </v>
    <v>       0.49997189       0.07653288       0.06026918 </v>
    <v>       0.24988562       0.92347643       0.06026473 </v>
    <v>       0.25594286       0.07818940       0.30635724 </v>
    <v>      -0.00581786       0.92182771       0.30635436 </v>
    <v>       0.99997189       0.07653288       0.06026918 </v>
    <v>       0.74988562       0.92347643       0.06026473 </v>
    <v>       0.75594286       0.07818940       0.30635724 </v>
    <v>       0.49418214       0.92182771       0.30635436 </v>
    <v>       0.49085059       0.07716857       0.57358071 </v>
    <v>       0.25890294       0.92282680       0.57355211 </v>
    <v>       0.25410336       0.07295039       0.80852316 </v>
    <v>      -0.00405902       0.92710434       0.80842865 </v>
    <v>       0.99085059       0.07716857       0.57358071 </v>
    <v>       0.75890294       0.92282680       0.57355211 </v>
    <v>       0.75410336       0.07295039       0.80852316 </v>
    <v>       0.49594098       0.92710434       0.80842865 </v>
   </varray>
  </structure>
  <varray name="forces" >
   <v>      -0.00470687      -0.00093271      -0.18421524 </v>
   <v>       0.00694334       0.00272250       0.25291190 </v>
   <v>       0.00921015      -0.00482014       0.04244953 </v>
   <v>      -0.00470687      -0.00093271      -0.18421524 </v>
   <v>       0.00694334       0.00272250       0.25291190 </v>
   <v>       0.00921015      -0.00482014       0.04244953 </v>
   <v>      -0.00620010       0.00349917      -0.03845731 </v>
   <v>      -0.00932886      -0.00239099       0.09601117 </v>
   <v>       0.00941750       0.00066476      -0.17385106 </v>
   <v>      -0.00620010       0.00349917      -0.03845731 </v>
   <v>      -0.00932886      -0.00239099       0.09601117 </v>
   <v>       0.00941750       0.00066476      -0.17385106 </v>
   <v>       0.00409041      -0.00226615       0.82235693 </v>
   <v>       0.00409041      -0.00226615       0.82235693 </v>
   <v>      -0.02103152      -0.21421410      -0.17665443 </v>
   <v>       0.01527834       0.21398643      -0.17591104 </v>
   <v>       0.01599890      -0.31671826      -0.03992300 </v>
   <v>      -0.00982990       0.31650033      -0.03992919 </v>
   <v>      -0.02103152      -0.21421410      -0.17665443 </v>
   <v>       0.01527834       0.21398643      -0.17591104 </v>
   <v>       0.01599890      -0.31671826      -0.03992300 </v>
   <v>      -0.00982990       0.31650033      -0.03992919 </v>
   <v>      -0.00180745      -0.18838117       0.17389373 </v>
   <v>      -0.00563804       0.18775698       0.17282382 </v>
   <v>       0.03533782      -0.46223882      -0.01222491 </v>
   <v>      -0.03094814       0.46150545      -0.01251438 </v>
   <v>      -0.00180745      -0.18838117       0.17389373 </v>
   <v>      -0.00563804       0.18775698       0.17282382 </v>
   <v>       0.03533782      -0.46223882      -0.01222491 </v>
   <v>      -0.03094814       0.46150545      -0.01251438 </v>
   <v>      -0.01041655       0.21732316       0.07117237 </v>
   <v>       0.00979282      -0.21674857       0.07028247 </v>
   <v>      -0.01054325       0.17332017      -0.00498408 </v>
[...]
       <r>   11.5917    0.0000 </r>
       <r>   11.5917    0.0000 </r>
       <r>   11.6265    0.0000 </r>
       <r>   11.6265    0.0000 </r>
      </set>
     </set>
    </set>
   </array>
  </eigenvalues>
  <separator name="orbital magnetization" >
   <v name="MAGDIPOLOUT">      0.00000000      0.00000000      0.00000000</v>
  </separator>
  <dos>
   <i name="efermi">      4.52109303 </i>
   <total>
    <array>
     <dimension dim="1">gridpoints</dimension>
     <dimension dim="2">spin</dimension>
     <field>energy</field>
     <field>total</field>
     <field>integrated</field>
     <set>
      <set comment="spin 1">
       <r>   -42.4497     0.0000     0.0000 </r>
       <r>   -42.2574     0.0000     0.0000 </r>
       <r>   -42.0651     0.0000     0.0000 </r>
       <r>   -41.8728     0.0000     0.0000 </r>
       <r>   -41.6805     0.0000     0.0000 </r>
       <r>   -41.4882     0.0000     0.0000 </r>
       <r>   -41.2959     0.0000     0.0000 </r>
       <r>   -41.1036     0.0000     0.0000 </r>
       <r>   -40.9113     0.0000     0.0000 </r>
       <r>   -40.7189     0.0000     0.0000 </r>
       <r>   -40.5266     0.0000     0.0000 </r>
       <r>   -40.3343     0.0000     0.0000 </r>
       <r>   -40.1420     0.0000     0.0000 </r>
       <r>   -39.9497     0.0000     0.0000 </r>
       <r>   -39.7574     0.0000     4.0000 </r>
       <r>   -39.5651     0.0000    16.0000 </r>
       <r>   -39.3728     0.0000    20.0000 </r>
       <r>   -39.1805     0.0000    20.0000 </r>
       <r>   -38.9882     0.0000    24.0000 </r>
       <r>   -38.7959     0.0000    24.0000 </r>
       <r>   -38.6036     0.0000    24.0000 </r>
       <r>   -38.4113     0.0000    24.0000 </r>
       <r>   -38.2190     0.0000    24.0000 </r>
       <r>   -38.0267     0.0000    24.0000 </r>
       <r>   -37.8344     0.0000    24.0000 </r>
       <r>   -37.6420     0.0000    24.0000 </r>
       <r>   -37.4497     0.0000    24.0000 </r>
       <r>   -37.2574     0.0000    24.0000 </r>
       <r>   -37.0651     0.0000    24.0000 </r>
       <r>   -36.8728     0.0000    24.0000 </r>
       <r>   -36.6805     0.0000    24.0000 </r>
       <r>   -36.4882     0.0000    24.0000 </r>
       <r>   -36.2959     0.0000    24.0000 </r>
       <r>   -36.1036     0.0000    24.0000 </r>
       <r>   -35.9113     0.0000    24.0000 </r>
       <r>   -35.7190     0.0000    24.0000 </r>
       <r>   -35.5267     0.0000    24.0000 </r>
       <r>   -35.3344     0.0000    24.0000 </r>
       <r>   -35.1421     0.0000    24.0000 </r>
       <r>   -34.9498     0.0000    24.0000 </r>
       <r>   -34.7575     0.0000    24.0000 </r>
       <r>   -34.5651     0.0000    24.0000 </r>
       <r>   -34.3728     0.0000    24.0000 </r>
       <r>   -34.1805     0.0000    24.0000 </r>
       <r>   -33.9882     0.0000    24.0000 </r>
       <r>   -33.7959     0.0000    24.0000 </r>
       <r>   -33.6036     0.0000    24.0000 </r>
       <r>   -33.4113     0.0000    24.0000 </r>
       <r>   -33.2190     0.0000    24.0000 </r>
       <r>   -33.0267     0.0000    24.0000 </r>
       <r>   -32.8344     0.0000    24.0000 </r>
       <r>   -32.6421     0.0000    24.0000 </r>
       <r>   -32.4498     0.0000    24.0000 </r>
       <r>   -32.2575     0.0000    24.0000 </r>
       <r>   -32.0652     0.0000    24.0000 </r>
       <r>   -31.8729     0.0000    24.0000 </r>
       <r>   -31.6806     0.0000    24.0000 </r>
       <r>   -31.4882     0.0000    24.0000 </r>
       <r>   -31.2959     0.0000    24.0000 </r>
       <r>   -31.1036     0.0000    24.0000 </r>
       <r>   -30.9113     0.0000    24.0000 </r>
       <r>   -30.7190     0.0000    24.0000 </r>
       <r>   -30.5267     0.0000    24.0000 </r>
       <r>   -30.3344     0.0000    24.0000 </r>
       <r>   -30.1421     0.0000    24.0000 </r>
       <r>   -29.9498     0.0000    24.0000 </r>
       <r>   -29.7575     0.0000    24.0000 </r>
       <r>   -29.5652     0.0000    24.0000 </r>
       <r>   -29.3729     0.0000    24.0000 </r>
       <r>   -29.1806     0.0000    24.0000 </r>
       <r>   -28.9883     0.0000    24.0000 </r>
       <r>   -28.7960     0.0000    24.0000 </r>
       <r>   -28.6037     0.0000    24.0000 </r>
       <r>   -28.4113     0.0000    24.0000 </r>
       <r>   -28.2190     0.0000    24.0000 </r>
       <r>   -28.0267     0.0000    24.0000 </r>
       <r>   -27.8344     0.0000    24.0000 </r>
       <r>   -27.6421     0.0000    24.0000 </r>
       <r>   -27.4498     0.0000    24.0000 </r>
       <r>   -27.2575     0.0000    24.0000 </r>
       <r>   -27.0652     0.0000    24.0000 </r>
       <r>   -26.8729     0.0000    24.0000 </r>
       <r>   -26.6806     0.0000    24.0000 </r>
       <r>   -26.4883     0.0000    24.0000 </r>
       <r>   -26.2960     0.0000    24.0000 </r>
       <r>   -26.1037     0.0000    24.0000 </r>
       <r>   -25.9114     0.0000    24.0000 </r>
       <r>   -25.7191     0.0000    24.0000 </r>
       <r>   -25.5268     0.0000    24.0000 </r>
       <r>   -25.3345     0.0000    24.0000 </r>
       <r>   -25.1421     0.0000    24.0000 </r>
       <r>   -24.9498     0.0000    24.0000 </r>
       <r>   -24.7575     0.0000    24.0000 </r>
       <r>   -24.5652     0.0000    24.0000 </r>
       <r>   -24.3729     0.0000    24.0000 </r>
       <r>   -24.1806     0.0000    24.0000 </r>
       <r>   -23.9883     0.0000    24.0000 </r>
       <r>   -23.7960     0.0000    24.0000 </r>
       <r>   -23.6037     0.0000    24.0000 </r>
       <r>   -23.4114     0.0000    24.0000 </r>
       <r>   -23.2191     0.0000    24.0000 </r>
       <r>   -23.0268     0.0000    24.0000 </r>
       <r>   -22.8345     0.0000    24.0000 </r>
       <r>   -22.6422     0.0000    24.0000 </r>
       <r>   -22.4499     0.0000    24.0000 </r>
       <r>   -22.2576     0.0000    24.0000 </r>
       <r>   -22.0652     0.0000    24.0000 </r>
       <r>   -21.8729     0.0000    24.0000 </r>
       <r>   -21.6806     0.0000    24.0000 </r>
       <r>   -21.4883     0.0000    24.0000 </r>
       <r>   -21.2960     0.0000    24.0000 </r>
       <r>   -21.1037     0.0000    24.0000 </r>
       <r>   -20.9114     0.0000    24.0000 </r>
       <r>   -20.7191     0.0000    24.0000 </r>
       <r>   -20.5268     0.0000    24.0000 </r>
       <r>   -20.3345     0.0000    24.0000 </r>
       <r>   -20.1422     0.0000    24.0000 </r>
       <r>   -19.9499     0.0000    24.0000 </r>
       <r>   -19.7576     0.0000    24.0000 </r>
       <r>   -19.5653     0.0000    24.0000 </r>
       <r>   -19.3730     0.0000    24.0000 </r>
       <r>   -19.1807     0.0000    24.0000 </r>
       <r>   -18.9883     0.0000    24.0000 </r>
       <r>   -18.7960     0.0000    24.0000 </r>
       <r>   -18.6037     0.0000    24.0000 </r>
       <r>   -18.4114  1215.6984    90.5630 </r>
       <r>   -18.2191     0.0000   168.0000 </r>
       <r>   -18.0268     0.0000   184.0000 </r>
       <r>   -17.8345     0.0000   184.0000 </r>
       <r>   -17.6422     0.0000   184.0000 </r>
       <r>   -17.4499     0.0000   184.0000 </r>
       <r>   -17.2576     0.0000   184.0000 </r>
       <r>   -17.0653     0.0000   184.0000 </r>
       <r>   -16.8730     0.0000   184.0000 </r>
       <r>   -16.6807     0.0000   184.0000 </r>
       <r>   -16.4884     0.0000   184.0000 </r>
       <r>   -16.2961     0.0000   184.0000 </r>
       <r>   -16.1038     0.0000   184.0000 </r>
       <r>   -15.9114     0.0000   184.0000 </r>
       <r>   -15.7191     0.0000   184.0000 </r>
       <r>   -15.5268     0.0000   184.0000 </r>
       <r>   -15.3345     0.0000   184.0000 </r>
       <r>   -15.1422     0.0000   184.0000 </r>
       <r>   -14.9499     0.0000   184.0000 </r>
       <r>   -14.7576     0.0000   184.0000 </r>
       <r>   -14.5653     0.0000   184.0000 </r>
       <r>   -14.3730     0.0000   184.0000 </r>
       <r>   -14.1807     0.0000   184.0000 </r>
       <r>   -13.9884     0.0000   184.0000 </r>
       <r>   -13.7961     0.0000   184.0000 </r>
       <r>   -13.6038     0.0000   184.0000 </r>
       <r>   -13.4115     0.0000   184.0000 </r>
       <r>   -13.2192     0.0000   184.0000 </r>
       <r>   -13.0269     0.0000   184.0000 </r>
       <r>   -12.8345    48.7150   187.7321 </r>
       <r>   -12.6422     0.0000   192.0000 </r>
       <r>   -12.4499    35.6592   202.3115 </r>
       <r>   -12.2576     0.0000   212.0000 </r>
       <r>   -12.0653     0.0000   216.0000 </r>
       <r>   -11.8730     0.0000   216.0000 </r>
       <r>   -11.6807     0.0000   216.0000 </r>
       <r>   -11.4884     0.0000   216.0000 </r>
       <r>   -11.2961     0.0000   216.0000 </r>
       <r>   -11.1038     0.0000   216.0000 </r>
       <r>   -10.9115     0.0000   216.0000 </r>
       <r>   -10.7192     0.0000   216.0000 </r>
       <r>   -10.5269     0.0000   216.0000 </r>
       <r>   -10.3346     0.0000   216.0000 </r>
       <r>   -10.1423     0.0000   216.0000 </r>
       <r>    -9.9500     0.0000   216.0000 </r>
       <r>    -9.7576     0.0000   216.0000 </r>
       <r>    -9.5653     0.0000   216.0000 </r>
       <r>    -9.3730     0.0000   216.0000 </r>
       <r>    -9.1807     7.8383   216.4388 </r>
       <r>    -8.9884    14.1744   218.4428 </r>
       <r>    -8.7961     2.2166   219.9542 </r>
       <r>    -8.6038    17.8286   221.4937 </r>
       <r>    -8.4115    29.0363   224.2658 </r>
       <r>    -8.2192    22.0696   229.6915 </r>
       <r>    -8.0269     1.8733   231.9819 </r>
       <r>    -7.8346    38.0578   236.5968 </r>
       <r>    -7.6423    24.5591   242.3532 </r>
       <r>    -7.4500    16.8586   244.9569 </r>
       <r>    -7.2577     2.1705   247.9853 </r>
       <r>    -7.0654     0.0000   248.0000 </r>
       <r>    -6.8731     0.0000   248.0000 </r>
       <r>    -6.6807     0.0000   248.0000 </r>
       <r>    -6.4884     0.0000   248.0000 </r>
       <r>    -6.2961     0.0000   248.0000 </r>
       <r>    -6.1038     5.2909   248.1162 </r>
       <r>    -5.9115    35.3238   251.8111 </r>
       <r>    -5.7192     2.6381   255.9642 </r>
       <r>    -5.5269    28.2587   259.5752 </r>
       <r>    -5.3346    27.0899   264.7121 </r>
       <r>    -5.1423    19.7054   269.3000 </r>
       <r>    -4.9500    10.5640   271.5030 </r>
       <r>    -4.7577     4.9317   272.2219 </r>
       <r>    -4.5654    13.4134   274.1733 </r>
       <r>    -4.3731     4.2981   276.1223 </r>
       <r>    -4.1808     5.5428   276.9118 </r>
       <r>    -3.9885    10.2547   278.3338 </r>
       <r>    -3.7962     2.5689   279.5183 </r>
       <r>    -3.6038     1.2452   279.8850 </r>
       <r>    -3.4115     0.0409   279.9996 </r>
       <r>    -3.2192     0.0000   280.0000 </r>
       <r>    -3.0269     0.0000   280.0000 </r>
       <r>    -2.8346     0.0000   280.0000 </r>
       <r>    -2.6423     0.0000   280.0000 </r>
       <r>    -2.4500     0.0000   280.0000 </r>
       <r>    -2.2577     0.0000   280.0000 </r>
       <r>    -2.0654     0.0000   280.0000 </r>
       <r>    -1.8731     0.0000   280.0000 </r>
       <r>    -1.6808     0.0000   280.0000 </r>
       <r>    -1.4885     0.0000   280.0000 </r>
       <r>    -1.2962     0.0000   280.0000 </r>
       <r>    -1.1039     5.1915   280.2660 </r>
       <r>    -0.9116     6.6530   281.6983 </r>
       <r>    -0.7193     6.7100   282.7634 </r>
       <r>    -0.5269    13.4783   284.9356 </r>
       <r>    -0.3346     7.9687   286.9431 </r>
       <r>    -0.1423    23.0018   289.7708 </r>
       <r>     0.0500    26.2354   294.5774 </r>
       <r>     0.2423    41.5491   301.8696 </r>
       <r>     0.4346    34.8267   309.4986 </r>
       <r>     0.6269    33.8430   317.4950 </r>
       <r>     0.8192    32.8269   323.7451 </r>
       <r>     1.0115    22.3595   329.7664 </r>
       <r>     1.2038    32.6425   337.0680 </r>
       <r>     1.3961    45.8678   345.5052 </r>
       <r>     1.5884    47.1757   354.0541 </r>
       <r>     1.7807    51.4090   363.5072 </r>
       <r>     1.9730    67.6790   373.4323 </r>
       <r>     2.1653    38.5415   384.4893 </r>
       <r>     2.3576    38.6560   392.1933 </r>
       <r>     2.5500    48.5648   400.4096 </r>
       <r>     2.7423    73.4759   413.8024 </r>
       <r>     2.9346    70.8448   426.6987 </r>
       <r>     3.1269    72.4241   438.4031 </r>
       <r>     3.3192    39.9852   451.6180 </r>
       <r>     3.5115    21.7516   457.3406 </r>
       <r>     3.7038    39.3438   463.7712 </r>
       <r>     3.8961    14.6953   468.2393 </r>
       <r>     4.0884     9.1101   470.5160 </r>
       <r>     4.2807     3.6811   471.7456 </r>
       <r>     4.4730     0.0000   472.0000 </r>
       <r>     4.6653     0.0000   472.0000 </r>
       <r>     4.8576     0.0000   472.0000 </r>
       <r>     5.0499     0.0000   472.0000 </r>
       <r>     5.2422     0.0000   472.0000 </r>
       <r>     5.4345     0.7709   472.0144 </r>
       <r>     5.6269     6.8218   472.7408 </r>
       <r>     5.8192    10.1129   474.5257 </r>
       <r>     6.0115    26.2655   476.6828 </r>
       <r>     6.2038    14.3431   480.8869 </r>
       <r>     6.3961    12.6652   483.4527 </r>
       <r>     6.5884    12.6597   485.8512 </r>
       <r>     6.7807    14.5731   488.4697 </r>
       <r>     6.9730    16.5914   491.4582 </r>
       <r>     7.1653    20.1875   494.9803 </r>
       <r>     7.3576    26.7345   499.3924 </r>
       <r>     7.5499    40.4859   505.0295 </r>
       <r>     7.7422    25.4577   512.2286 </r>
       <r>     7.9345    29.6919   517.4198 </r>
       <r>     8.1268    28.0309   522.9767 </r>
       <r>     8.3191    40.3877   529.5421 </r>
       <r>     8.5114    30.1661   537.3229 </r>
       <r>     8.7038    17.4056   541.2830 </r>
       <r>     8.8961    34.9489   545.7002 </r>
       <r>     9.0884    42.8282   552.8438 </r>
       <r>     9.2807    25.6268   559.7304 </r>
       <r>     9.4730    26.7887   565.5488 </r>
       <r>     9.6653     1.8071   567.9748 </r>
       <r>     9.8576     0.0000   568.0000 </r>
       <r>    10.0499    11.3716   569.0227 </r>
       <r>    10.2422    10.2195   571.6998 </r>
       <r>    10.4345    14.7592   573.0452 </r>
       <r>    10.6268    20.1620   577.7997 </r>
       <r>    10.8191    30.6843   582.8347 </r>
       <r>    11.0114    37.5569   590.2695 </r>
       <r>    11.2037    18.2852   597.1170 </r>
       <r>    11.3960    26.3071   600.8267 </r>
       <r>    11.5883    25.5398   605.4999 </r>
       <r>    11.7807    21.2319   610.2004 </r>
       <r>    11.9730    12.1245   613.3942 </r>
       <r>    12.1653     5.8599   615.0500 </r>
       <r>    12.3576     2.2877   615.8208 </r>
       <r>    12.5499     0.1126   615.9974 </r>
       <r>    12.7422     0.0000   616.0000 </r>
       <r>    12.9345     0.0000   616.0000 </r>
       <r>    13.1268     0.0000   616.0000 </r>
       <r>    13.3191     0.0000   616.0000 </r>
       <r>    13.5114     0.0000   616.0000 </r>
       <r>    13.7037     0.0000   616.0000 </r>
       <r>    13.8960     0.0000   616.0000 </r>
       <r>    14.0883     0.0000   616.0000 </r>
       <r>    14.2806     0.0000   616.0000 </r>
       <r>    14.4729     0.0000   616.0000 </r>
       <r>    14.6652     0.0000   616.0000 </r>
       <r>    14.8576     0.0000   616.0000 </r>
       <r>    15.0499     0.0000   616.0000 </r>
       <r>    15.2422     0.0000   616.0000 </r>
      </set>
     </set>
    </array>
   </total>
  </dos>
 </calculation>
 <structure name="finalpos" >
  <crystal>
   <varray name="basis" >
    <v>      11.16146645      -0.00272361       0.00000041 </v>
    <v>      -0.00150771       9.44325655       0.00005924 </v>
    <v>       0.00000116       0.00002172      11.16146484 </v>
   </varray>
   <i name="volume">   1176.42494720 </i>
   <varray name="rec_basis" >
    <v>       0.08959397       0.00001430      -0.00000001 </v>
    <v>       0.00002584       0.10589568      -0.00000021 </v>
    <v>      -0.00000000      -0.00000056       0.08959397 </v>
   </varray>
  </crystal>
  <varray name="positions" >
   <v>       0.37504097       0.00003872       0.42297204 </v>
   <v>       0.12499952       0.00000327       0.20474707 </v>
   <v>       0.37499319      -0.00000227       0.18365299 </v>
   <v>       0.87504097       0.00003872       0.42297204 </v>
   <v>       0.62499952       0.00000327       0.20474707 </v>
   <v>       0.87499319      -0.00000227       0.18365299 </v>
   <v>       0.12500348       0.00001746       0.93958157 </v>
   <v>       0.37499458       0.00000657       0.94668487 </v>
   <v>       0.12497246       0.00000720       0.67016591 </v>
   <v>       0.62500348       0.00001746       0.93958157 </v>
   <v>       0.87499458       0.00000657       0.94668487 </v>
   <v>       0.62497246       0.00000720       0.67016591 </v>
   <v>       0.37497185       0.00001694       0.69574754 </v>
   <v>       0.87497185       0.00001694       0.69574754 </v>
   <v>      -0.00032308       0.30028851       0.06404541 </v>
   <v>       0.25030765       0.69971542       0.06404561 </v>
   <v>       0.25149374       0.29776112       0.31033052 </v>
   <v>       0.49848301       0.70223638       0.31032348 </v>
   <v>       0.49967692       0.30028851       0.06404541 </v>
   <v>       0.75030765       0.69971542       0.06404561 </v>
   <v>       0.75149374       0.29776112       0.31033052 </v>
   <v>      -0.00151699       0.70223638       0.31032348 </v>
   <v>      -0.00045706       0.30572607       0.56197453 </v>
   <v>       0.25040659       0.69429796       0.56197707 </v>
   <v>       0.25051431       0.30919075       0.81355562 </v>
   <v>       0.49944778       0.69083819       0.81354534 </v>
   <v>       0.49954294       0.30572607       0.56197453 </v>
   <v>       0.75040659       0.69429796       0.56197707 </v>
   <v>       0.75051431       0.30919075       0.81355562 </v>
   <v>      -0.00055222       0.69083819       0.81354534 </v>
   <v>       0.24953551       0.34759226       0.06169538 </v>
   <v>       0.00045123       0.65241745       0.06168169 </v>
   <v>       0.49991986       0.34028609       0.31223435 </v>
   <v>       0.25005039       0.65971006       0.31222455 </v>
   <v>       0.74953551       0.34759226       0.06169538 </v>
   <v>       0.50045123       0.65241745       0.06168169 </v>
   <v>       0.99991986       0.34028609       0.31223435 </v>
   <v>       0.75005039       0.65971006       0.31222455 </v>
   <v>       0.25064194       0.34126686       0.56492222 </v>
   <v>      -0.00068439       0.65874378       0.56490803 </v>
   <v>       0.49878829       0.34878978       0.81234925 </v>
   <v>       0.25117431       0.65121077       0.81234289 </v>
   <v>       0.75064194       0.34126686       0.56492222 </v>
   <v>       0.49931561       0.65874378       0.56490803 </v>
   <v>       0.99878829       0.34878978       0.81234925 </v>
   <v>       0.75117431       0.65121077       0.81234289 </v>
   <v>       0.49989398       0.07994621       0.05755647 </v>
   <v>       0.25010469       0.92005963       0.05755676 </v>
   <v>       0.26226995       0.08227258       0.29759564 </v>
   <v>      -0.01227151       0.91772751       0.29759021 </v>
   <v>      -0.00010602       0.07994621       0.05755647 </v>
   <v>       0.75010469       0.92005963       0.05755676 </v>
   <v>       0.76226995       0.08227258       0.29759564 </v>
   <v>       0.48772849       0.91772751       0.29759021 </v>
   <v>       0.48757283       0.08693287       0.58186246 </v>
   <v>       0.26235747       0.91307419       0.58190221 </v>
   <v>       0.25549884       0.08306163       0.81170766 </v>
   <v>      -0.00554239       0.91696605       0.81169068 </v>
   <v>       0.98757283       0.08693287       0.58186246 </v>
   <v>       0.76235747       0.91307419       0.58190221 </v>
   <v>       0.75549884       0.08306163       0.81170766 </v>
   <v>       0.49445761       0.91696605       0.81169068 </v>
  </varray>
 </structure>
</modeling>
