<?xml version="1.0" encoding="ISO-8859-1"?>
<modeling>
 <generator>
  <i name="program" type="string">vasp </i>
  <i name="version" type="string">5.4.4.18Apr17-6-g9f103f2a35  </i>
  <i name="subversion" type="string">(build Jul 31 2017 11:33:29) complex            parallel </i>
  <i name="platform" type="string">LinuxIFC </i>
  <i name="date" type="string">2021 09 29 </i>
  <i name="time" type="string">01:32:28 </i>
 </generator>
 <incar>
  <i type="string" name="SYSTEM"> La2O2S</i>
  <i type="string" name="PREC">normal</i>
  <i type="int" name="NELMIN">     4</i>
  <i type="int" name="IBRION">     2</i>
  <i type="int" name="NFREE">    10</i>
  <i name="EDIFF">      0.00000100</i>
  <i name="EDIFFG">     -0.01000000</i>
  <i type="int" name="NSW">     1</i>
  <i type="int" name="ISIF">     2</i>
  <i name="ENCUT">    600.00000000</i>
  <i name="ENAUG">    900.00000000</i>
  <i type="int" name="ISMEAR">    -5</i>
  <i type="logical" name="LWAVE"> F  </i>
  <i type="logical" name="LCHARG"> F  </i>
  <v type="int" name="KPOINT_BSE">    -1     0     0     0</v>
 </incar>
 <structure name="primitive_cell" >
  <crystal>
   <varray name="basis" >
    <v>      11.17850000       0.00000000       0.00000000 </v>
    <v>       0.00000000       9.57460000       0.00000000 </v>
    <v>       0.00000000       0.00000000      11.18240000 </v>
   </varray>
   <i name="volume">   1196.84853820 </i>
   <varray name="rec_basis" >
    <v>       0.08945744       0.00000000       0.00000000 </v>
    <v>       0.00000000       0.10444301       0.00000000 </v>
    <v>       0.00000000       0.00000000       0.08942624 </v>
   </varray>
  </crystal>
  <varray name="positions" >
   <v>       0.37539000       0.00017000       0.43687000 </v>
   <v>      -0.49987000      -0.07798000       0.31246000 </v>
   <v>       0.25013000       0.07798000       0.31246000 </v>
   <v>       0.49987000       0.07798000      -0.43754000 </v>
   <v>       0.24987000      -0.07798000      -0.43754000 </v>
   <v>      -0.37461000      -0.00016000       0.43687000 </v>
   <v>       0.37461000       0.00017000       0.18687000 </v>
   <v>       0.49987000      -0.29519000       0.31282000 </v>
   <v>       0.24987000       0.29519000       0.31282000 </v>
   <v>      -0.49987000       0.29519000      -0.43719000 </v>
   <v>       0.25013000      -0.29519000      -0.43719000 </v>
   <v>       0.49995000       0.32677000       0.31286000 </v>
   <v>       0.24995000      -0.32677000       0.31286000 </v>
   <v>      -0.49995000      -0.32677000      -0.43714000 </v>
   <v>       0.25005000       0.32677000      -0.43714000 </v>
   <v>      -0.37539000      -0.00016000       0.18687000 </v>
   <v>      -0.37539000      -0.00016000      -0.31313000 </v>
   <v>       0.12461000      -0.00016000       0.18687000 </v>
   <v>       0.12461000      -0.00016000      -0.31313000 </v>
   <v>       0.49987000       0.07798000       0.06246000 </v>
   <v>      -0.24987000       0.07798000       0.31246000 </v>
   <v>      -0.25013000      -0.07798000      -0.43754000 </v>
   <v>       0.24987000      -0.07798000       0.06246000 </v>
   <v>       0.00013000      -0.07798000       0.31246000 </v>
   <v>      -0.49987000      -0.07798000      -0.18754000 </v>
   <v>      -0.00013000       0.07798000      -0.43754000 </v>
   <v>       0.25013000       0.07798000      -0.18754000 </v>
   <v>      -0.49987000       0.29519000       0.06281000 </v>
   <v>      -0.25013000       0.29519000       0.31282000 </v>
   <v>       0.25013000      -0.29519000       0.06281000 </v>
   <v>      -0.24987000      -0.29519000      -0.43719000 </v>
   <v>      -0.00013000      -0.29519000       0.31282000 </v>
   <v>       0.00013000       0.29519000      -0.43719000 </v>
   <v>       0.49987000      -0.29519000      -0.18718000 </v>
   <v>       0.24987000       0.29519000      -0.18718000 </v>
   <v>      -0.49995000      -0.32677000       0.06286000 </v>
   <v>       0.25005000       0.32677000       0.06286000 </v>
   <v>      -0.25005000      -0.32677000       0.31286000 </v>
   <v>      -0.24995000       0.32677000      -0.43714000 </v>
   <v>      -0.00005000       0.32677000       0.31286000 </v>
   <v>       0.00005000      -0.32677000      -0.43714000 </v>
   <v>       0.49995000       0.32677000      -0.18714000 </v>
   <v>       0.24995000      -0.32677000      -0.18714000 </v>
   <v>      -0.12461000       0.00017000       0.43687000 </v>
   <v>       0.37539000       0.00017000      -0.06313000 </v>
   <v>      -0.25013000      -0.07798000       0.06246000 </v>
   <v>      -0.00013000       0.07798000       0.06246000 </v>
   <v>      -0.24987000       0.07798000      -0.18754000 </v>
   <v>       0.00013000      -0.07798000      -0.18754000 </v>
   <v>      -0.12539000       0.00017000      -0.31313000 </v>
   <v>      -0.12539000       0.00017000       0.18687000 </v>
   <v>       0.12539000      -0.00016000      -0.06313000 </v>
   <v>      -0.37461000      -0.00016000      -0.06313000 </v>
   <v>      -0.24987000      -0.29519000       0.06281000 </v>
   <v>       0.00013000       0.29519000       0.06281000 </v>
   <v>      -0.25013000       0.29519000      -0.18718000 </v>
   <v>      -0.00013000      -0.29519000      -0.18718000 </v>
   <v>      -0.24995000       0.32677000       0.06286000 </v>
   <v>       0.00005000      -0.32677000       0.06286000 </v>
   <v>      -0.25005000      -0.32677000      -0.18714000 </v>
   <v>      -0.00005000       0.32677000      -0.18714000 </v>
  </varray>
 </structure>
 <varray name="primitive_index" >
  <v type="int" >        1 </v>
  <v type="int" >       53 </v>
  <v type="int" >       48 </v>
  <v type="int" >       54 </v>
  <v type="int" >       55 </v>
  <v type="int" >        4 </v>
  <v type="int" >        3 </v>
  <v type="int" >       17 </v>
  <v type="int" >       16 </v>
  <v type="int" >       26 </v>
  <v type="int" >       23 </v>
  <v type="int" >       32 </v>
  <v type="int" >       33 </v>
  <v type="int" >       43 </v>
  <v type="int" >       38 </v>
  <v type="int" >        6 </v>
  <v type="int" >       13 </v>
  <v type="int" >        2 </v>
  <v type="int" >       12 </v>
  <v type="int" >       46 </v>
  <v type="int" >       52 </v>
  <v type="int" >       59 </v>
  <v type="int" >       47 </v>
  <v type="int" >       49 </v>
  <v type="int" >       61 </v>
  <v type="int" >       58 </v>
  <v type="int" >       56 </v>
  <v type="int" >       18 </v>
  <v type="int" >       20 </v>
  <v type="int" >       15 </v>
  <v type="int" >       27 </v>
  <v type="int" >       21 </v>
  <v type="int" >       22 </v>
  <v type="int" >       25 </v>
  <v type="int" >       24 </v>
  <v type="int" >       35 </v>
  <v type="int" >       30 </v>
  <v type="int" >       37 </v>
  <v type="int" >       42 </v>
  <v type="int" >       36 </v>
  <v type="int" >       39 </v>
  <v type="int" >       40 </v>
  <v type="int" >       41 </v>
  <v type="int" >        5 </v>
  <v type="int" >        8 </v>
  <v type="int" >       51 </v>
  <v type="int" >       50 </v>
  <v type="int" >       60 </v>
  <v type="int" >       57 </v>
  <v type="int" >       10 </v>
  <v type="int" >       11 </v>
  <v type="int" >        7 </v>
  <v type="int" >        9 </v>
  <v type="int" >       19 </v>
  <v type="int" >       14 </v>
  <v type="int" >       28 </v>
  <v type="int" >       29 </v>
  <v type="int" >       34 </v>
  <v type="int" >       31 </v>
  <v type="int" >       45 </v>
  <v type="int" >       44 </v>
 </varray>
 <kpoints>
  <generation param="Gamma">
   <v type="int" name="divisions">       2        2        2 </v>
   <v name="usershift">      0.00000000       0.00000000       0.00000000 </v>
   <v name="genvec1">      0.50000000       0.00000000       0.00000000 </v>
   <v name="genvec2">      0.00000000       0.50000000       0.00000000 </v>
   <v name="genvec3">      0.00000000       0.00000000       0.50000000 </v>
   <v name="shift">      0.00000000       0.00000000       0.00000000 </v>
  </generation>
  <varray name="kpointlist" >
   <v>       0.00000000       0.00000000       0.00000000 </v>
   <v>       0.50000000       0.00000000       0.00000000 </v>
   <v>       0.00000000       0.50000000       0.00000000 </v>
   <v>       0.50000000       0.50000000       0.00000000 </v>
   <v>       0.00000000       0.00000000       0.50000000 </v>
   <v>       0.50000000       0.00000000       0.50000000 </v>
   <v>       0.00000000       0.50000000       0.50000000 </v>
   <v>       0.50000000       0.50000000       0.50000000 </v>
  </varray>
  <varray name="weights" >
   <v>       0.12500000 </v>
   <v>       0.12500000 </v>
   <v>       0.12500000 </v>
   <v>       0.12500000 </v>
   <v>       0.12500000 </v>
   <v>       0.12500000 </v>
   <v>       0.12500000 </v>
   <v>       0.12500000 </v>
  </varray>
  <varray name="tetrahedronlist"  type="int" >
   <v type="int" >        2        1        2        4        5 </v>
   <v type="int" >        2        1        3        4        5 </v>
   <v type="int" >        2        3        4        5        7 </v>
   <v type="int" >        2        2        4        5        6 </v>
   <v type="int" >        2        4        5        6        8 </v>
   <v type="int" >        2        4        5        7        8 </v>
   <v type="int" >        2        1        2        3        6 </v>
   <v type="int" >        2        2        3        4        6 </v>
   <v type="int" >        2        3        4        6        8 </v>
   <v type="int" >        2        1        3        5        6 </v>
   <v type="int" >        2        3        5        6        7 </v>
   <v type="int" >        2        3        6        7        8 </v>
   <v type="int" >        2        2        3        4        7 </v>
   <v type="int" >        2        1        2        3        7 </v>
   <v type="int" >        2        1        2        5        7 </v>
   <v type="int" >        2        2        4        7        8 </v>
   <v type="int" >        2        2        6        7        8 </v>
   <v type="int" >        2        2        5        6        7 </v>
   <v type="int" >        2        1        3        4        8 </v>
   <v type="int" >        2        1        2        4        8 </v>
   <v type="int" >        2        1        2        6        8 </v>
   <v type="int" >        2        1        3        7        8 </v>
   <v type="int" >        2        1        5        7        8 </v>
   <v type="int" >        2        1        5        6        8 </v>
  </varray>
  <i name="volumeweight">      0.02083333 </i>
 </kpoints>
 <parameters>
  <separator name="general" >
   <i type="string" name="SYSTEM">La2O2S</i>
   <i type="logical" name="LCOMPAT"> F  </i>
  </separator>
  <separator name="electronic" >
   <i type="string" name="PREC">normal</i>
   <i name="ENMAX">    600.00000000</i>
   <i name="ENAUG">    900.00000000</i>
   <i name="EDIFF">      0.00000100</i>
   <i type="int" name="IALGO">    38</i>
   <i type="int" name="IWAVPR">    11</i>
   <i type="int" name="NBANDS">   280</i>
   <i name="NELECT">    468.00000000</i>
   <i type="int" name="TURBO">     0</i>
   <i type="int" name="IRESTART">     0</i>
   <i type="int" name="NREBOOT">     0</i>
   <i type="int" name="NMIN">     0</i>
   <i name="EREF">      0.00000000</i>
   <separator name="electronic smearing" >
    <i type="int" name="ISMEAR">    -5</i>
    <i name="SIGMA">      0.20000000</i>
    <i name="KSPACING">      0.50000000</i>
    <i type="logical" name="KGAMMA"> T  </i>
   </separator>
   <separator name="electronic projectors" >
    <i type="logical" name="LREAL"> F  </i>
    <v name="ROPT">      0.00000000      0.00000000      0.00000000      0.00000000      0.00000000</v>
    <i type="int" name="LMAXPAW">  -100</i>
    <i type="int" name="LMAXMIX">     2</i>
    <i type="logical" name="NLSPLINE"> F  </i>
   </separator>
   <separator name="electronic startup" >
    <i type="int" name="ISTART">     0</i>
    <i type="int" name="ICHARG">     2</i>
    <i type="int" name="INIWAV">     1</i>
   </separator>
   <separator name="electronic spin" >
    <i type="int" name="ISPIN">     1</i>
    <i type="logical" name="LNONCOLLINEAR"> F  </i>
    <v name="MAGMOM">      1.00000000      1.00000000      1.00000000      1.00000000      1.00000000      1.00000000      1.00000000      1.00000000      1.00000000      1.00000000      1.00000000      1.00000000      1.00000000      1.00000000      1.00000000      1.00000000      1.00000000      1.00000000      1.00000000      1.00000000
      1.00000000      1.00000000      1.00000000      1.00000000      1.00000000      1.00000000      1.00000000      1.00000000      1.00000000      1.00000000      1.00000000      1.00000000      1.00000000      1.00000000      1.00000000      1.00000000      1.00000000      1.00000000      1.00000000      1.00000000
      1.00000000      1.00000000      1.00000000      1.00000000      1.00000000      1.00000000      1.00000000      1.00000000      1.00000000      1.00000000      1.00000000      1.00000000      1.00000000      1.00000000      1.00000000      1.00000000      1.00000000      1.00000000      1.00000000      1.00000000
      1.00000000</v>
    <i name="NUPDOWN">     -1.00000000</i>
    <i type="logical" name="LSORBIT"> F  </i>
    <v name="SAXIS">      0.00000000      0.00000000      1.00000000</v>
    <i type="logical" name="LSPIRAL"> F  </i>
    <v name="QSPIRAL">      0.00000000      0.00000000      0.00000000</v>
    <i type="logical" name="LZEROZ"> F  </i>
   </separator>
   <separator name="electronic exchange-correlation" >
    <i type="logical" name="LASPH"> F  </i>
    <i type="logical" name="LMETAGGA"> F  </i>
   </separator>
   <separator name="electronic convergence" >
    <i type="int" name="NELM">    60</i>
    <i type="int" name="NELMDL">    -5</i>
    <i type="int" name="NELMIN">     4</i>
    <i name="ENINI">    600.00000000</i>
    <separator name="electronic convergence detail" >
     <i type="logical" name="LDIAG"> T  </i>
     <i type="logical" name="LSUBROT"> F  </i>
     <i name="WEIMIN">      0.00100000</i>
     <i name="EBREAK">      0.00000000</i>
     <i name="DEPER">      0.30000000</i>
     <i type="int" name="NRMM">     4</i>
     <i name="TIME">      0.40000000</i>
    </separator>
   </separator>
   <separator name="electronic mixer" >
    <i name="AMIX">      0.40000000</i>
    <i name="BMIX">      1.00000000</i>
    <i name="AMIN">      0.10000000</i>
    <i name="AMIX_MAG">      1.60000000</i>
    <i name="BMIX_MAG">      1.00000000</i>
    <separator name="electronic mixer details" >
     <i type="int" name="IMIX">     4</i>
     <i type="logical" name="MIXFIRST"> F  </i>
     <i type="int" name="MAXMIX">   -45</i>
     <i name="WC">    100.00000000</i>
     <i type="int" name="INIMIX">     1</i>
     <i type="int" name="MIXPRE">     1</i>
     <i type="int" name="MREMOVE">     5</i>
    </separator>
   </separator>
   <separator name="electronic dipolcorrection" >
    <i type="logical" name="LDIPOL"> F  </i>
    <i type="logical" name="LMONO"> F  </i>
    <i type="int" name="IDIPOL">     0</i>
    <i name="EPSILON">      1.00000000</i>
    <v name="DIPOL">   -100.00000000   -100.00000000   -100.00000000</v>
    <i name="EFIELD">      0.00000000</i>
   </separator>
  </separator>
  <separator name="grids" >
   <i type="int" name="NGX">    70</i>
   <i type="int" name="NGY">    60</i>
   <i type="int" name="NGZ">    70</i>
   <i type="int" name="NGXF">   140</i>
   <i type="int" name="NGYF">   120</i>
   <i type="int" name="NGZF">   140</i>
   <i type="logical" name="ADDGRID"> F  </i>
  </separator>
  <separator name="ionic" >
   <i type="int" name="NSW">     1</i>
   <i type="int" name="IBRION">     2</i>
   <i type="int" name="MDALGO">     0</i>
   <i type="int" name="ISIF">     2</i>
   <i name="PSTRESS">      0.00000000</i>
   <i name="EDIFFG">     -0.01000000</i>
   <i type="int" name="NFREE">    10</i>
   <i name="POTIM">      0.50000000</i>
   <i name="SMASS">     -3.00000000</i>
   <i name="SCALEE">      1.00000000</i>
  </separator>
  <separator name="ionic md" >
   <i name="TEBEG">      0.00010000</i>
   <i name="TEEND">      0.00010000</i>
   <i type="int" name="NBLOCK">     1</i>
   <i type="int" name="KBLOCK">     1</i>
   <i type="int" name="NPACO">   256</i>
   <i name="APACO">     16.00000000</i>
  </separator>
  <separator name="symmetry" >
   <i type="int" name="ISYM">     2</i>
   <i name="SYMPREC">      0.00001000</i>
  </separator>
  <separator name="dos" >
   <i type="int" name="LORBIT">     0</i>
   <v name="RWIGS">     -1.00000000     -1.00000000     -1.00000000     -1.00000000     -1.00000000</v>
   <i type="int" name="NEDOS">   301</i>
   <i name="EMIN">     10.00000000</i>
   <i name="EMAX">    -10.00000000</i>
   <i name="EFERMI">      0.00000000</i>
  </separator>
  <separator name="writing" >
   <i type="int" name="NWRITE">     2</i>
   <i type="logical" name="LWAVE"> F  </i>
   <i type="logical" name="LDOWNSAMPLE"> F  </i>
   <i type="logical" name="LCHARG"> F  </i>
   <i type="logical" name="LPARD"> F  </i>
   <i type="logical" name="LVTOT"> F  </i>
   <i type="logical" name="LVHAR"> F  </i>
   <i type="logical" name="LELF"> F  </i>
   <i type="logical" name="LOPTICS"> F  </i>
   <v name="STM">      0.00000000      0.00000000      0.00000000      0.00000000      0.00000000      0.00000000      0.00000000</v>
  </separator>
  <separator name="performance" >
   <i type="int" name="NPAR">    28</i>
   <i type="int" name="NSIM">     4</i>
   <i type="int" name="NBLK">    -1</i>
   <i type="logical" name="LPLANE"> T  </i>
   <i type="logical" name="LSCALAPACK"> T  </i>
   <i type="logical" name="LSCAAWARE"> F  </i>
   <i type="logical" name="LSCALU"> F  </i>
   <i type="logical" name="LASYNC"> F  </i>
   <i type="logical" name="LORBITALREAL"> F  </i>
  </separator>
  <separator name="miscellaneous" >
   <i type="int" name="IDIOT">     3</i>
   <i type="int" name="ISPECIAL">     0</i>
   <i type="logical" name="LMUSIC"> F  </i>
   <v name="POMASS">      7.01000000     24.30500000    208.98000000     32.06600000     16.00000000</v>
   <v name="DARWINR">      0.00000000      0.00000000      0.00000000      0.00000000      0.00000000</v>
   <v name="DARWINV">      1.00000000      1.00000000      1.00000000      1.00000000      1.00000000</v>
   <i type="logical" name="LCORR"> T  </i>
  </separator>
  <i type="logical" name="GGA_COMPAT"> T  </i>
  <i type="logical" name="LBERRY"> F  </i>
  <i type="int" name="ICORELEVEL">     0</i>
  <i type="logical" name="LDAU"> F  </i>
  <i type="int" name="I_CONSTRAINED_M">     0</i>
  <separator name="electronic exchange-correlation" >
   <i type="string" name="GGA">--</i>
   <i type="int" name="VOSKOWN">     0</i>
   <i type="logical" name="LHFCALC"> F  </i>
   <i type="string" name="PRECFOCK"></i>
   <i type="logical" name="LSYMGRAD"> F  </i>
   <i type="logical" name="LHFONE"> F  </i>
   <i type="logical" name="LRHFCALC"> F  </i>
   <i type="logical" name="LTHOMAS"> F  </i>
   <i type="logical" name="LMODELHF"> F  </i>
   <i name="ENCUT4O">     -1.00000000</i>
   <i type="int" name="EXXOEP">     0</i>
   <i type="int" name="FOURORBIT">     0</i>
   <i name="AEXX">      0.00000000</i>
   <i name="HFALPHA">      0.00000000</i>
   <i name="MCALPHA">      0.00000000</i>
   <i name="ALDAX">      1.00000000</i>
   <i name="AGGAX">      1.00000000</i>
   <i name="ALDAC">      1.00000000</i>
   <i name="AGGAC">      1.00000000</i>
   <i type="int" name="NKREDX">     1</i>
   <i type="int" name="NKREDY">     1</i>
   <i type="int" name="NKREDZ">     1</i>
   <i type="logical" name="SHIFTRED"> F  </i>
   <i type="logical" name="ODDONLY"> F  </i>
   <i type="logical" name="EVENONLY"> F  </i>
   <i type="int" name="LMAXFOCK">     0</i>
   <i type="int" name="NMAXFOCKAE">     0</i>
   <i type="logical" name="LFOCKAEDFT"> F  </i>
   <i name="HFSCREEN">      0.00000000</i>
   <i name="HFSCREENC">      0.00000000</i>
   <i type="int" name="NBANDSGWLOW">     0</i>
  </separator>
  <separator name="vdW DFT" >
   <i type="logical" name="LUSE_VDW"> F  </i>
   <i name="Zab_VDW">     -0.84910000</i>
   <i name="PARAM1">      0.12340000</i>
   <i name="PARAM2">      1.00000000</i>
   <i name="PARAM3">      0.00000000</i>
  </separator>
  <separator name="model GW" >
   <i type="int" name="MODEL_GW">     0</i>
   <i name="MODEL_EPS0">     11.77228070</i>
   <i name="MODEL_ALPHA">      1.00000000</i>
  </separator>
  <separator name="linear response parameters" >
   <i type="logical" name="LEPSILON"> F  </i>
   <i type="logical" name="LRPA"> F  </i>
   <i type="logical" name="LNABLA"> F  </i>
   <i type="logical" name="LVEL"> F  </i>
   <i type="int" name="KINTER">     0</i>
   <i name="CSHIFT">      0.10000000</i>
   <i name="OMEGAMAX">     -1.00000000</i>
   <i name="DEG_THRESHOLD">      0.00200000</i>
   <i name="RTIME">     -0.10000000</i>
   <i name="WPLASMAI">      0.00000000</i>
   <v name="DFIELD">      0.00000000      0.00000000      0.00000000</v>
   <v name="WPLASMA">      0.00000000      0.00000000      0.00000000      0.00000000      0.00000000      0.00000000      0.00000000      0.00000000      0.00000000</v>
  </separator>
  <separator name="orbital magnetization" >
   <i type="logical" name="NUCIND"> F  </i>
   <v name="MAGPOS">      0.00000000      0.00000000      0.00000000</v>
   <i type="logical" name="LNICSALL"> T  </i>
   <i type="logical" name="ORBITALMAG"> F  </i>
   <i type="logical" name="LMAGBLOCH"> F  </i>
   <i type="logical" name="LCHIMAG"> F  </i>
   <i type="logical" name="LGAUGE"> T  </i>
   <i type="int" name="MAGATOM">     0</i>
   <v name="MAGDIPOL">      0.00000000      0.00000000      0.00000000</v>
   <v name="AVECCONST">      0.00000000      0.00000000      0.00000000</v>
  </separator>
  <separator name="response functions" >
   <i type="logical" name="LADDER"> F  </i>
   <i type="logical" name="LRPAFORCE"> F  </i>
   <i type="logical" name="LFXC"> F  </i>
   <i type="logical" name="LHARTREE"> T  </i>
   <i type="int" name="IBSE">     0</i>
   <v type="int" name="KPOINT">    -1     0     0     0</v>
   <i type="logical" name="LTCTE"> F  </i>
   <i type="logical" name="LTETE"> F  </i>
   <i type="logical" name="LTRIPLET"> F  </i>
   <i type="logical" name="LFXCEPS"> F  </i>
   <i type="logical" name="LFXHEG"> F  </i>
   <i type="int" name="NATURALO">     2</i>
   <i type="logical" name="L2ORDER"> F  </i>
   <i type="logical" name="LMP2LT"> F  </i>
   <i type="logical" name="LUSEW"> F  </i>
   <i name="ENCUTGW">     -2.00000000</i>
   <i name="ENCUTGWSOFT">     -2.00000000</i>
   <i name="ENCUTLF">     -1.00000000</i>
   <i type="int" name="LMAXMP2">    -1</i>
   <i name="SCISSOR">      0.00000000</i>
   <i type="int" name="NOMEGA">     0</i>
   <i type="int" name="NOMEGAR">     0</i>
   <i type="int" name="NBANDSGW">    -1</i>
   <i type="int" name="NBANDSO">    -1</i>
   <i type="int" name="NBANDSV">    -1</i>
   <i type="int" name="NELM">     1</i>
   <i type="int" name="NELMHF">     1</i>
   <i type="int" name="DIM">     3</i>
   <i type="int" name="ANTIRES">     0</i>
   <i name="OMEGAMAX">    -30.00000000</i>
   <i name="OMEGAMIN">    -30.00000000</i>
   <i name="OMEGATL">   -200.00000000</i>
   <i type="int" name="OMEGAGRID">   140</i>
   <i name="CSHIFT">     -0.10000000</i>
   <i type="logical" name="SELFENERGY"> F  </i>
   <i type="logical" name="LSPECTRAL"> F  </i>
   <i type="logical" name="LSPECTRALGW"> F  </i>
   <i type="logical" name="LSINGLES"> F  </i>
   <i type="logical" name="LFERMIGW"> F  </i>
   <i type="logical" name="ODDONLYGW"> F  </i>
   <i type="logical" name="EVENONLYGW"> F  </i>
   <i type="int" name="NKREDLFX">     1</i>
   <i type="int" name="NKREDLFY">     1</i>
   <i type="int" name="NKREDLFZ">     1</i>
   <i type="int" name="MAXMEM">  2800</i>
   <i type="int" name="TELESCOPE">     0</i>
   <i type="int" name="TAUPAR">     1</i>
   <i type="int" name="OMEGAPAR">    -1</i>
   <i name="LAMBDA">      1.00000000</i>
  </separator>
  <separator name="External order field" >
   <i name="OFIELD_KAPPA">      0.00000000</i>
   <v name="OFIELD_K">      0.00000000      0.00000000      0.00000000</v>
   <i name="OFIELD_Q6_NEAR">      0.00000000</i>
   <i name="OFIELD_Q6_FAR">      0.00000000</i>
   <i name="OFIELD_A">      0.00000000</i>
  </separator>
 </parameters>
 <atominfo>
  <atoms>      61 </atoms>
  <types>       5 </types>
  <array name="atoms" >
   <dimension dim="1">ion</dimension>
   <field type="string">element</field>
   <field type="int">atomtype</field>
   <set>
    <rc><c>Li</c><c>   1</c></rc>
    <rc><c>Li</c><c>   1</c></rc>
    <rc><c>Li</c><c>   1</c></rc>
    <rc><c>Li</c><c>   1</c></rc>
    <rc><c>Li</c><c>   1</c></rc>
    <rc><c>Li</c><c>   1</c></rc>
    <rc><c>Li</c><c>   1</c></rc>
    <rc><c>Li</c><c>   1</c></rc>
    <rc><c>Li</c><c>   1</c></rc>
    <rc><c>Li</c><c>   1</c></rc>
    <rc><c>Mg</c><c>   2</c></rc>
    <rc><c>Mg</c><c>   2</c></rc>
    <rc><c>Mg</c><c>   2</c></rc>
    <rc><c>Bi</c><c>   3</c></rc>
    <rc><c>Bi</c><c>   3</c></rc>
    <rc><c>Bi</c><c>   3</c></rc>
    <rc><c>Bi</c><c>   3</c></rc>
    <rc><c>Bi</c><c>   3</c></rc>
    <rc><c>Bi</c><c>   3</c></rc>
    <rc><c>Bi</c><c>   3</c></rc>
    <rc><c>Bi</c><c>   3</c></rc>
    <rc><c>Bi</c><c>   3</c></rc>
    <rc><c>Bi</c><c>   3</c></rc>
    <rc><c>Bi</c><c>   3</c></rc>
    <rc><c>Bi</c><c>   3</c></rc>
    <rc><c>Bi</c><c>   3</c></rc>
    <rc><c>Bi</c><c>   3</c></rc>
    <rc><c>Bi</c><c>   3</c></rc>
    <rc><c>Bi</c><c>   3</c></rc>
    <rc><c>S </c><c>   4</c></rc>
    <rc><c>S </c><c>   4</c></rc>
    <rc><c>S </c><c>   4</c></rc>
    <rc><c>S </c><c>   4</c></rc>
    <rc><c>S </c><c>   4</c></rc>
    <rc><c>S </c><c>   4</c></rc>
    <rc><c>S </c><c>   4</c></rc>
    <rc><c>S </c><c>   4</c></rc>
    <rc><c>S </c><c>   4</c></rc>
    <rc><c>S </c><c>   4</c></rc>
    <rc><c>S </c><c>   4</c></rc>
    <rc><c>S </c><c>   4</c></rc>
    <rc><c>S </c><c>   4</c></rc>
    <rc><c>S </c><c>   4</c></rc>
    <rc><c>S </c><c>   4</c></rc>
    <rc><c>S </c><c>   4</c></rc>
    <rc><c>O </c><c>   5</c></rc>
    <rc><c>O </c><c>   5</c></rc>
    <rc><c>O </c><c>   5</c></rc>
    <rc><c>O </c><c>   5</c></rc>
    <rc><c>O </c><c>   5</c></rc>
    <rc><c>O </c><c>   5</c></rc>
    <rc><c>O </c><c>   5</c></rc>
    <rc><c>O </c><c>   5</c></rc>
    <rc><c>O </c><c>   5</c></rc>
    <rc><c>O </c><c>   5</c></rc>
    <rc><c>O </c><c>   5</c></rc>
    <rc><c>O </c><c>   5</c></rc>
    <rc><c>O </c><c>   5</c></rc>
    <rc><c>O </c><c>   5</c></rc>
    <rc><c>O </c><c>   5</c></rc>
    <rc><c>O </c><c>   5</c></rc>
   </set>
  </array>
  <array name="atomtypes" >
   <dimension dim="1">type</dimension>
   <field type="int">atomspertype</field>
   <field type="string">element</field>
   <field>mass</field>
   <field>valence</field>
   <field type="string">pseudopotential</field>
   <set>
    <rc><c>  10</c><c>Li</c><c>      7.01000000</c><c>      3.00000000</c><c>  PAW_PBE Li_sv 10Sep2004               </c></rc>
    <rc><c>   3</c><c>Mg</c><c>     24.30500000</c><c>      2.00000000</c><c>  PAW_PBE Mg 13Apr2007                  </c></rc>
    <rc><c>  16</c><c>Bi</c><c>    208.98000000</c><c>     15.00000000</c><c>  PAW_PBE Bi_d 06Sep2000                </c></rc>
    <rc><c>  16</c><c>S </c><c>     32.06600000</c><c>      6.00000000</c><c>  PAW_PBE S 06Sep2000                   </c></rc>
    <rc><c>  16</c><c>O </c><c>     16.00000000</c><c>      6.00000000</c><c>  PAW_PBE O 08Apr2002                   </c></rc>
   </set>
  </array>
 </atominfo>
 <structure name="initialpos" >
  <crystal>
   <varray name="basis" >
    <v>      11.17850000       0.00000000       0.00000000 </v>
    <v>       0.00000000       9.57460000       0.00000000 </v>
    <v>       0.00000000       0.00000000      11.18240000 </v>
   </varray>
   <i name="volume">   1196.84853820 </i>
   <varray name="rec_basis" >
    <v>       0.08945744       0.00000000       0.00000000 </v>
    <v>       0.00000000       0.10444301       0.00000000 </v>
    <v>       0.00000000       0.00000000       0.08942624 </v>
   </varray>
  </crystal>
  <varray name="positions" >
   <v>       0.37539000       0.00017000       0.43687000 </v>
   <v>       0.12461000       0.99984000       0.18687000 </v>
   <v>       0.37461000       0.00017000       0.18687000 </v>
   <v>       0.62539000       0.99984000       0.43687000 </v>
   <v>       0.87539000       0.00017000       0.43687000 </v>
   <v>       0.62461000       0.99984000       0.18687000 </v>
   <v>       0.12539000       0.99984000       0.93687000 </v>
   <v>       0.37539000       0.00017000       0.93687000 </v>
   <v>       0.62539000       0.99984000       0.93687000 </v>
   <v>       0.87461000       0.00017000       0.68687000 </v>
   <v>       0.87461000       0.00017000       0.18687000 </v>
   <v>       0.12461000       0.99984000       0.68687000 </v>
   <v>       0.62461000       0.99984000       0.68687000 </v>
   <v>       0.00013000       0.29519000       0.06281000 </v>
   <v>       0.25013000       0.70481000       0.06281000 </v>
   <v>       0.24987000       0.29519000       0.31282000 </v>
   <v>       0.49987000       0.70481000       0.31282000 </v>
   <v>       0.50013000       0.29519000       0.06281000 </v>
   <v>       0.75013000       0.70481000       0.06281000 </v>
   <v>       0.74987000       0.29519000       0.31282000 </v>
   <v>       0.99987000       0.70481000       0.31282000 </v>
   <v>       0.00013000       0.29519000       0.56281000 </v>
   <v>       0.25013000       0.70481000       0.56281000 </v>
   <v>       0.24987000       0.29519000       0.81282000 </v>
   <v>       0.49987000       0.70481000       0.81282000 </v>
   <v>       0.50013000       0.29519000       0.56281000 </v>
   <v>       0.75013000       0.70481000       0.56281000 </v>
   <v>       0.74987000       0.29519000       0.81282000 </v>
   <v>       0.99987000       0.70481000       0.81282000 </v>
   <v>       0.25005000       0.32677000       0.06286000 </v>
   <v>       0.00005000       0.67323000       0.06286000 </v>
   <v>       0.49995000       0.32677000       0.31286000 </v>
   <v>       0.24995000       0.67323000       0.31286000 </v>
   <v>       0.75005000       0.32677000       0.06286000 </v>
   <v>       0.50005000       0.67323000       0.06286000 </v>
   <v>       0.99995000       0.32677000       0.31286000 </v>
   <v>       0.74995000       0.67323000       0.31286000 </v>
   <v>       0.25005000       0.32677000       0.56286000 </v>
   <v>       0.00005000       0.67323000       0.56286000 </v>
   <v>       0.49995000       0.32677000       0.81286000 </v>
   <v>       0.24995000       0.67323000       0.81286000 </v>
   <v>       0.75005000       0.32677000       0.56286000 </v>
   <v>       0.50005000       0.67323000       0.56286000 </v>
   <v>       0.99995000       0.32677000       0.81286000 </v>
   <v>       0.74995000       0.67323000       0.81286000 </v>
   <v>       0.49987000       0.07798000       0.06246000 </v>
   <v>       0.24987000       0.92202000       0.06246000 </v>
   <v>       0.25013000       0.07798000       0.31246000 </v>
   <v>       0.00013000       0.92202000       0.31246000 </v>
   <v>       0.99987000       0.07798000       0.06246000 </v>
   <v>       0.74987000       0.92202000       0.06246000 </v>
   <v>       0.75013000       0.07798000       0.31246000 </v>
   <v>       0.50013000       0.92202000       0.31246000 </v>
   <v>       0.49987000       0.07798000       0.56246000 </v>
   <v>       0.24987000       0.92202000       0.56246000 </v>
   <v>       0.25013000       0.07798000       0.81246000 </v>
   <v>       0.00013000       0.92202000       0.81246000 </v>
   <v>       0.99987000       0.07798000       0.56246000 </v>
   <v>       0.74987000       0.92202000       0.56246000 </v>
   <v>       0.75013000       0.07798000       0.81246000 </v>
   <v>       0.50013000       0.92202000       0.81246000 </v>
  </varray>
 </structure>
 <calculation>
  <scstep>
   <time name="dav">   60.24   60.56</time>
   <time name="total">   60.32   60.65</time>
   <energy>
    <i name="alphaZ">   1073.51873187 </i>
    <i name="ewald"> -30883.22119970 </i>
    <i name="hartreedc"> -12706.16517056 </i>
    <i name="XCdc">   1394.97502533 </i>
    <i name="pawpsdc">  36823.70205594 </i>
    <i name="pawaedc"> -36326.52930246 </i>
    <i name="eentropy">      0.00000000 </i>
    <i name="bandstr">   1811.97065390 </i>
    <i name="atom">  44791.06186932 </i>
    <i name="e_fr_energy">   5979.31266364 </i>
    <i name="e_wo_entrp">   5979.31266364 </i>
    <i name="e_0_energy">   5979.31266364 </i>
   </energy>
  </scstep>
  <scstep>
   <time name="dav">   60.13   60.80</time>
   <time name="total">   60.14   60.81</time>
   <energy>
    <i name="e_fr_energy">    806.86975361 </i>
    <i name="e_wo_entrp">    806.86975361 </i>
    <i name="e_0_energy">    806.86975361 </i>
   </energy>
  </scstep>
  <scstep>
   <time name="dav">   69.70   70.44</time>
   <time name="total">   69.70   70.45</time>
   <energy>
    <i name="e_fr_energy">   -242.06767592 </i>
    <i name="e_wo_entrp">   -242.06767592 </i>
    <i name="e_0_energy">   -242.06767592 </i>
   </energy>
  </scstep>
  <scstep>
   <time name="dav">   73.08   73.55</time>
   <time name="total">   73.08   73.55</time>
   <energy>
    <i name="e_fr_energy">   -345.91449623 </i>
    <i name="e_wo_entrp">   -345.91449623 </i>
    <i name="e_0_energy">   -345.91449623 </i>
   </energy>
  </scstep>
  <scstep>
   <time name="dav">   97.77   98.05</time>
   <time name="total">   98.49   98.77</time>
   <energy>
    <i name="e_fr_energy">   -354.86871792 </i>
    <i name="e_wo_entrp">   -354.86871792 </i>
    <i name="e_0_energy">   -354.86871792 </i>
   </energy>
  </scstep>
  <scstep>
   <time name="dav">   85.56   85.73</time>
   <time name="total">   86.35   86.52</time>
   <energy>
    <i name="e_fr_energy">   -296.44490615 </i>
    <i name="e_wo_entrp">   -296.44490615 </i>
    <i name="e_0_energy">   -296.44490615 </i>
   </energy>
  </scstep>
  <scstep>
   <time name="dav">   65.16   65.22</time>
   <time name="total">   65.96   66.01</time>
   <energy>
    <i name="e_fr_energy">   -299.26905120 </i>
    <i name="e_wo_entrp">   -299.26905120 </i>
    <i name="e_0_energy">   -299.26905120 </i>
   </energy>
  </scstep>
  <scstep>
   <time name="dav">   78.62   78.77</time>
   <time name="total">   79.41   79.56</time>
   <energy>
    <i name="e_fr_energy">   -298.03831839 </i>
    <i name="e_wo_entrp">   -298.03831839 </i>
    <i name="e_0_energy">   -298.03831839 </i>
   </energy>
  </scstep>
  <scstep>
   <time name="dav">   75.97   76.39</time>
   <time name="total">   76.75   77.19</time>
   <energy>
    <i name="e_fr_energy">   -297.39551942 </i>
    <i name="e_wo_entrp">   -297.39551942 </i>
    <i name="e_0_energy">   -297.39551942 </i>
   </energy>
  </scstep>
  <scstep>
   <time name="dav">   75.50   75.64</time>
   <time name="total">   76.32   76.47</time>
   <energy>
    <i name="e_fr_energy">   -297.42350920 </i>
    <i name="e_wo_entrp">   -297.42350920 </i>
    <i name="e_0_energy">   -297.42350920 </i>
   </energy>
  </scstep>
  <scstep>
   <time name="dav">   80.96   81.09</time>
   <time name="total">   81.76   81.89</time>
   <energy>
    <i name="e_fr_energy">   -297.43259938 </i>
    <i name="e_wo_entrp">   -297.43259938 </i>
    <i name="e_0_energy">   -297.43259938 </i>
   </energy>
  </scstep>
  <scstep>
   <time name="dav">   87.56   88.50</time>
   <time name="total">   88.35   89.29</time>
   <energy>
    <i name="e_fr_energy">   -297.43598548 </i>
    <i name="e_wo_entrp">   -297.43598548 </i>
    <i name="e_0_energy">   -297.43598548 </i>
   </energy>
  </scstep>
  <scstep>
   <time name="dav">   70.44   70.66</time>
   <time name="total">   71.23   71.46</time>
   <energy>
    <i name="e_fr_energy">   -297.43727266 </i>
    <i name="e_wo_entrp">   -297.43727266 </i>
    <i name="e_0_energy">   -297.43727266 </i>
   </energy>
  </scstep>
  <scstep>
   <time name="dav">   74.22   74.28</time>
   <time name="total">   75.02   75.08</time>
   <energy>
    <i name="e_fr_energy">   -297.43747233 </i>
    <i name="e_wo_entrp">   -297.43747233 </i>
    <i name="e_0_energy">   -297.43747233 </i>
   </energy>
  </scstep>
  <scstep>
   <time name="dav">   81.87   82.08</time>
   <time name="total">   82.67   82.87</time>
   <energy>
    <i name="e_fr_energy">   -297.43750724 </i>
    <i name="e_wo_entrp">   -297.43750724 </i>
    <i name="e_0_energy">   -297.43750724 </i>
   </energy>
  </scstep>
  <scstep>
   <time name="dav">   65.19   65.97</time>
   <time name="total">   66.00   66.79</time>
   <energy>
    <i name="e_fr_energy">   -297.43752224 </i>
    <i name="e_wo_entrp">   -297.43752224 </i>
    <i name="e_0_energy">   -297.43752224 </i>
   </energy>
  </scstep>
  <scstep>
   <time name="dav">   72.38   73.06</time>
   <time name="total">   73.18   73.86</time>
   <energy>
    <i name="e_fr_energy">   -297.43752546 </i>
    <i name="e_wo_entrp">   -297.43752546 </i>
    <i name="e_0_energy">   -297.43752546 </i>
   </energy>
  </scstep>
  <scstep>
   <time name="dav">   57.37   58.59</time>
   <time name="total">   57.44   58.66</time>
   <energy>
    <i name="alphaZ">   1073.51873187 </i>
    <i name="ewald"> -30883.22119970 </i>
    <i name="hartreedc"> -12941.44443581 </i>
    <i name="XCdc">   1418.52746519 </i>
    <i name="pawpsdc">  43845.56304240 </i>
    <i name="pawaedc"> -43322.99341411 </i>
    <i name="eentropy">      0.00000000 </i>
    <i name="bandstr">  -4278.44958525 </i>
    <i name="atom">  44791.06186932 </i>
    <i name="e_fr_energy">   -297.43752608 </i>
    <i name="e_wo_entrp">   -297.43752608 </i>
    <i name="e_0_energy">   -297.43752608 </i>
   </energy>
  </scstep>
  <structure>
   <crystal>
    <varray name="basis" >
     <v>      11.17850000       0.00000000       0.00000000 </v>
     <v>       0.00000000       9.57460000       0.00000000 </v>
     <v>       0.00000000       0.00000000      11.18240000 </v>
    </varray>
    <i name="volume">   1196.84853820 </i>
    <varray name="rec_basis" >
     <v>       0.08945744       0.00000000       0.00000000 </v>
     <v>       0.00000000       0.10444301       0.00000000 </v>
     <v>       0.00000000       0.00000000       0.08942624 </v>
    </varray>
   </crystal>
   <varray name="positions" >
    <v>       0.37539000       0.00017000       0.43687000 </v>
    <v>       0.12461000       0.99984000       0.18687000 </v>
    <v>       0.37461000       0.00017000       0.18687000 </v>
    <v>       0.62539000       0.99984000       0.43687000 </v>
    <v>       0.87539000       0.00017000       0.43687000 </v>
    <v>       0.62461000       0.99984000       0.18687000 </v>
    <v>       0.12539000       0.99984000       0.93687000 </v>
    <v>       0.37539000       0.00017000       0.93687000 </v>
    <v>       0.62539000       0.99984000       0.93687000 </v>
    <v>       0.87461000       0.00017000       0.68687000 </v>
    <v>       0.87461000       0.00017000       0.18687000 </v>
    <v>       0.12461000       0.99984000       0.68687000 </v>
    <v>       0.62461000       0.99984000       0.68687000 </v>
    <v>       0.00013000       0.29519000       0.06281000 </v>
    <v>       0.25013000       0.70481000       0.06281000 </v>
    <v>       0.24987000       0.29519000       0.31282000 </v>
    <v>       0.49987000       0.70481000       0.31282000 </v>
    <v>       0.50013000       0.29519000       0.06281000 </v>
    <v>       0.75013000       0.70481000       0.06281000 </v>
    <v>       0.74987000       0.29519000       0.31282000 </v>
    <v>       0.99987000       0.70481000       0.31282000 </v>
    <v>       0.00013000       0.29519000       0.56281000 </v>
    <v>       0.25013000       0.70481000       0.56281000 </v>
    <v>       0.24987000       0.29519000       0.81282000 </v>
    <v>       0.49987000       0.70481000       0.81282000 </v>
    <v>       0.50013000       0.29519000       0.56281000 </v>
    <v>       0.75013000       0.70481000       0.56281000 </v>
    <v>       0.74987000       0.29519000       0.81282000 </v>
    <v>       0.99987000       0.70481000       0.81282000 </v>
    <v>       0.25005000       0.32677000       0.06286000 </v>
    <v>       0.00005000       0.67323000       0.06286000 </v>
    <v>       0.49995000       0.32677000       0.31286000 </v>
    <v>       0.24995000       0.67323000       0.31286000 </v>
    <v>       0.75005000       0.32677000       0.06286000 </v>
    <v>       0.50005000       0.67323000       0.06286000 </v>
    <v>       0.99995000       0.32677000       0.31286000 </v>
    <v>       0.74995000       0.67323000       0.31286000 </v>
    <v>       0.25005000       0.32677000       0.56286000 </v>
    <v>       0.00005000       0.67323000       0.56286000 </v>
    <v>       0.49995000       0.32677000       0.81286000 </v>
    <v>       0.24995000       0.67323000       0.81286000 </v>
    <v>       0.75005000       0.32677000       0.56286000 </v>
    <v>       0.50005000       0.67323000       0.56286000 </v>
    <v>       0.99995000       0.32677000       0.81286000 </v>
    <v>       0.74995000       0.67323000       0.81286000 </v>
    <v>       0.49987000       0.07798000       0.06246000 </v>
    <v>       0.24987000       0.92202000       0.06246000 </v>
    <v>       0.25013000       0.07798000       0.31246000 </v>
    <v>       0.00013000       0.92202000       0.31246000 </v>
    <v>       0.99987000       0.07798000       0.06246000 </v>
    <v>       0.74987000       0.92202000       0.06246000 </v>
    <v>       0.75013000       0.07798000       0.31246000 </v>
    <v>       0.50013000       0.92202000       0.31246000 </v>
    <v>       0.49987000       0.07798000       0.56246000 </v>
    <v>       0.24987000       0.92202000       0.56246000 </v>
    <v>       0.25013000       0.07798000       0.81246000 </v>
    <v>       0.00013000       0.92202000       0.81246000 </v>
    <v>       0.99987000       0.07798000       0.56246000 </v>
    <v>       0.74987000       0.92202000       0.56246000 </v>
    <v>       0.75013000       0.07798000       0.81246000 </v>
    <v>       0.50013000       0.92202000       0.81246000 </v>
   </varray>
  </structure>
  <varray name="forces" >
   <v>      -0.54296800      -0.00040648       0.34554026 </v>
   <v>       0.34850598       0.06395713       0.33393933 </v>
   <v>      -0.19229862       0.06135087       0.17432638 </v>
   <v>      -0.29900882      -0.00161413      -0.23633796 </v>
   <v>       0.54482416       0.00028193       0.31759686 </v>
   <v>      -0.34010396      -0.06470317      -0.16736567 </v>
   <v>      -0.22774758      -0.00083719       0.23624453 </v>
   <v>      -0.04218783       0.00096817      -0.34127667 </v>
   <v>       0.22005720       0.00286966       0.24407460 </v>
   <v>       0.21484466       0.06435575       0.35582484 </v>
   <v>       0.31575648      -0.12037774      -0.75678852 </v>
   <v>       0.85295397      -0.10834975      -0.71915575 </v>
   <v>      -0.82750624       0.12334514       0.26617938 </v>
   <v>       0.11848105      -0.02528361      -0.18921260 </v>
   <v>       0.00997991      -0.01451658       0.06700832 </v>
   <v>      -0.08985663      -1.02582471       0.11908433 </v>
   <v>      -0.23874996      -0.02487352      -0.03505531 </v>
   <v>      -0.17285955       0.01673838       0.03130951 </v>
   <v>       0.02005671      -0.00313914      -0.22546226 </v>
   <v>      -0.10139466       1.04884081       0.02215529 </v>
   <v>       0.45524769      -0.01645373       0.18304569 </v>
   <v>       0.27935722       0.00649533      -0.19302784 </v>
   <v>       0.04977297       1.08041651      -0.11996030 </v>
   <v>       0.18973073      -0.03722718      -0.08229186 </v>
   <v>      -0.33057548       0.01140395      -0.04193902 </v>
   <v>      -0.42588137      -0.00385669       0.02787312 </v>
   <v>       0.07252528      -1.06871257      -0.03370276 </v>
   <v>       0.19685104       0.02741428       0.22169093 </v>
   <v>      -0.03316256       0.00504782       0.18183426 </v>
   <v>       0.00748445       0.23238802      -0.10064215 </v>
   <v>      -0.10421271      -0.14048762       0.06374452 </v>
   <v>       0.26332438       0.19258820      -0.00351171 </v>
   <v>       0.02685027      -0.20060748      -0.13142985 </v>
   <v>       0.02240749       0.08927714       0.14907377 </v>
   <v>       0.07183099      -0.18949101       0.00451466 </v>
   <v>      -0.32059392       0.12290490      -0.05733687 </v>
   <v>       0.03622409      -0.11917713       0.04050415 </v>
   <v>      -0.04923075       0.14719884       0.13632245 </v>
   <v>      -0.24581334      -0.14606892       0.05057682 </v>
   <v>       0.14161383       0.13935728      -0.02356862 </v>
   <v>      -0.05766904      -0.18219853       0.08939885 </v>
   <v>      -0.04140402       0.12395450      -0.04068271 </v>
   <v>       0.33108177      -0.11665586       0.02404400 </v>
   <v>      -0.02393867       0.15181408      -0.05840161 </v>
   <v>      -0.05821520      -0.10023731      -0.14822835 </v>
   <v>       0.09402651      -0.01995423       0.00423384 </v>
   <v>       0.00999754      -0.03250569      -0.06778969 </v>
   <v>       0.60126507       0.84370716      -0.66780531 </v>
   <v>      -1.29475689       0.08914426      -1.05306641 </v>
   <v>       0.05711249       0.05770076       1.10480757 </v>
   <v>      -0.14779731       0.02637749       1.18185323 </v>
   <v>       0.44810341      -0.82576317      -0.39777449 </v>
   <v>       0.23488256       0.02526963      -0.00522755 </v>
   <v>       1.32196862       0.00263542      -0.13589927 </v>
   <v>      -0.47899956      -1.00162977       0.52438556 </v>
   <v>      -1.10100609       0.10393289       0.20195695 </v>
   <v>       0.96307423       0.01833722      -1.06324044 </v>
   <v>      -0.36955977       0.04046444       1.05440272 </v>
   <v>      -0.45775417       0.82846309       0.38302068 </v>
   <v>      -1.07198311      -0.11483194      -1.16684168 </v>
   <v>       1.16704304      -0.04321624       0.12245585 </v>
  </varray>
  <varray name="stress" >
   <v>      -8.10822944      -0.04794527       0.28209801 </v>
   <v>      -0.04794506     -14.22748032      -0.07967268 </v>
   <v>       0.28209815      -0.07967262      -8.39565698 </v>
  </varray>
  <energy>
   <i name="e_fr_energy">   -312.11086252 </i>
   <i name="e_wo_entrp">   -312.11086252 </i>
   <i name="e_0_energy">      0.00000000 </i>
  </energy>
  <time name="totalsc"> 1448.04 1457.71</time>
  <eigenvalues>
   <array>
    <dimension dim="1">band</dimension>
    <dimension dim="2">kpoint</dimension>
    <dimension dim="3">spin</dimension>
    <field>eigene</field>
    <field>occ</field>
    <set>
     <set comment="spin 1">
      <set comment="kpoint 1">
       <r>  -40.2247    1.0000 </r>
       <r>  -40.1868    1.0000 </r>
       <r>  -40.0569    1.0000 </r>
       <r>  -40.0522    1.0000 </r>
       <r>  -39.8521    1.0000 </r>
       <r>  -39.7510    1.0000 </r>
       <r>  -39.7166    1.0000 </r>
       <r>  -39.6050    1.0000 </r>
       <r>  -39.5939    1.0000 </r>
       <r>  -39.3668    1.0000 </r>
       <r>  -18.9221    1.0000 </r>
       <r>  -18.9211    1.0000 </r>
       <r>  -18.8527    1.0000 </r>
       <r>  -18.8510    1.0000 </r>
       <r>  -18.8458    1.0000 </r>
       <r>  -18.8441    1.0000 </r>
       <r>  -18.7487    1.0000 </r>
       <r>  -18.7472    1.0000 </r>
       <r>  -18.7356    1.0000 </r>
       <r>  -18.7340    1.0000 </r>
       <r>  -18.7180    1.0000 </r>
       <r>  -18.7146    1.0000 </r>
       <r>  -18.7066    1.0000 </r>
       <r>  -18.7047    1.0000 </r>
       <r>  -18.7040    1.0000 </r>
       <r>  -18.6991    1.0000 </r>
       <r>  -18.6487    1.0000 </r>
       <r>  -18.6453    1.0000 </r>
       <r>  -18.6440    1.0000 </r>
       <r>  -18.6417    1.0000 </r>
       <r>  -18.6402    1.0000 </r>
       <r>  -18.6395    1.0000 </r>
       <r>  -18.6394    1.0000 </r>
       <r>  -18.6375    1.0000 </r>
       <r>  -18.6359    1.0000 </r>
       <r>  -18.6347    1.0000 </r>
       <r>  -18.6346    1.0000 </r>
       <r>  -18.6340    1.0000 </r>
       <r>  -18.6315    1.0000 </r>
       <r>  -18.6312    1.0000 </r>
       <r>  -18.6308    1.0000 </r>
       <r>  -18.6296    1.0000 </r>
       <r>  -18.6288    1.0000 </r>
       <r>  -18.6281    1.0000 </r>
       <r>  -18.6268    1.0000 </r>
       <r>  -18.6249    1.0000 </r>
       <r>  -18.6224    1.0000 </r>
       <r>  -18.6202    1.0000 </r>
       <r>  -18.6196    1.0000 </r>
       <r>  -18.6182    1.0000 </r>
       <r>  -18.5600    1.0000 </r>
       <r>  -18.5596    1.0000 </r>
       <r>  -18.5595    1.0000 </r>
       <r>  -18.5580    1.0000 </r>
       <r>  -18.5488    1.0000 </r>
       <r>  -18.5467    1.0000 </r>
       <r>  -18.5463    1.0000 </r>
       <r>  -18.5422    1.0000 </r>
       <r>  -18.5354    1.0000 </r>
       <r>  -18.5333    1.0000 </r>
       <r>  -18.4894    1.0000 </r>
       <r>  -18.4893    1.0000 </r>
       <r>  -18.4871    1.0000 </r>
       <r>  -18.4862    1.0000 </r>
       <r>  -18.4834    1.0000 </r>
       <r>  -18.4806    1.0000 </r>
       <r>  -18.4793    1.0000 </r>
       <r>  -18.4771    1.0000 </r>
       <r>  -18.4761    1.0000 </r>
       <r>  -18.4749    1.0000 </r>
       <r>  -18.4741    1.0000 </r>
       <r>  -18.4738    1.0000 </r>
       <r>  -18.4731    1.0000 </r>
       <r>  -18.4723    1.0000 </r>
       <r>  -18.4690    1.0000 </r>
       <r>  -18.4668    1.0000 </r>
       <r>  -18.4018    1.0000 </r>
       <r>  -18.3978    1.0000 </r>
       <r>  -18.3887    1.0000 </r>
       <r>  -18.3863    1.0000 </r>
       <r>  -18.3840    1.0000 </r>
       <r>  -18.3819    1.0000 </r>
       <r>  -18.3757    1.0000 </r>
       <r>  -18.3692    1.0000 </r>
       <r>  -18.2963    1.0000 </r>
       <r>  -18.2912    1.0000 </r>
       <r>  -18.1820    1.0000 </r>
       <r>  -18.1811    1.0000 </r>
       <r>  -18.1678    1.0000 </r>
       <r>  -18.1554    1.0000 </r>
       <r>  -13.5367    1.0000 </r>
       <r>  -13.4669    1.0000 </r>
       <r>  -12.9093    1.0000 </r>
       <r>  -12.8271    1.0000 </r>
       <r>  -12.7899    1.0000 </r>
       <r>  -12.7593    1.0000 </r>
       <r>  -12.7423    1.0000 </r>
       <r>  -12.6938    1.0000 </r>
       <r>  -12.6860    1.0000 </r>
       <r>  -12.6751    1.0000 </r>
       <r>  -12.6510    1.0000 </r>
       <r>  -12.6169    1.0000 </r>
       <r>  -12.5812    1.0000 </r>
       <r>  -12.5326    1.0000 </r>
       <r>  -11.9629    1.0000 </r>
       <r>  -11.9077    1.0000 </r>
       <r>   -9.3202    1.0000 </r>
       <r>   -9.0255    1.0000 </r>
       <r>   -8.5202    1.0000 </r>
       <r>   -8.4991    1.0000 </r>
       <r>   -8.4782    1.0000 </r>
       <r>   -8.4356    1.0000 </r>
       <r>   -8.2984    1.0000 </r>
       <r>   -8.2779    1.0000 </r>
       <r>   -8.2516    1.0000 </r>
       <r>   -8.2116    1.0000 </r>
       <r>   -8.0212    1.0000 </r>
       <r>   -8.0188    1.0000 </r>
       <r>   -7.9849    1.0000 </r>
       <r>   -7.9833    1.0000 </r>
       <r>   -7.3484    1.0000 </r>
       <r>   -7.3480    1.0000 </r>
       <r>   -6.3626    1.0000 </r>
       <r>   -6.3586    1.0000 </r>
       <r>   -6.3400    1.0000 </r>
       <r>   -6.3353    1.0000 </r>
       <r>   -5.5228    1.0000 </r>
       <r>   -5.4884    1.0000 </r>
       <r>   -5.3528    1.0000 </r>
       <r>   -5.3365    1.0000 </r>
       <r>   -5.3265    1.0000 </r>
       <r>   -5.2458    1.0000 </r>
       <r>   -5.1963    1.0000 </r>
       <r>   -5.1667    1.0000 </r>
       <r>   -5.1156    1.0000 </r>
       <r>   -5.0507    1.0000 </r>
       <r>   -3.7998    1.0000 </r>
       <r>   -3.6472    1.0000 </r>
       <r>   -1.3839    1.0000 </r>
       <r>   -1.3523    1.0000 </r>
       <r>   -1.0576    1.0000 </r>
       <r>   -1.0318    1.0000 </r>
       <r>   -0.5254    1.0000 </r>
       <r>   -0.4925    1.0000 </r>
       <r>   -0.4716    1.0000 </r>
       <r>   -0.4482    1.0000 </r>
       <r>   -0.1665    1.0000 </r>
       <r>   -0.1633    1.0000 </r>
       <r>   -0.1470    1.0000 </r>
       <r>   -0.1247    1.0000 </r>
       <r>    0.0856    1.0000 </r>
       <r>    0.1578    1.0000 </r>
       <r>    0.3664    1.0000 </r>
       <r>    0.4293    1.0000 </r>
       <r>    0.5620    1.0000 </r>
       <r>    0.5852    1.0000 </r>
       <r>    0.6002    1.0000 </r>
       <r>    0.6805    1.0000 </r>
       <r>    0.7012    1.0000 </r>
       <r>    0.7070    1.0000 </r>
       <r>    0.7444    1.0000 </r>
       <r>    0.7680    1.0000 </r>
       <r>    0.8447    1.0000 </r>
       <r>    0.8858    1.0000 </r>
       <r>    0.9530    1.0000 </r>
       <r>    0.9711    1.0000 </r>
       <r>    0.9928    1.0000 </r>
       <r>    1.0233    1.0000 </r>
       <r>    1.0671    1.0000 </r>
       <r>    1.1222    1.0000 </r>
       <r>    1.1354    1.0000 </r>
       <r>    1.1837    1.0000 </r>
       <r>    1.2508    1.0000 </r>
       <r>    1.2927    1.0000 </r>
       <r>    1.3305    1.0000 </r>
       <r>    1.3598    1.0000 </r>
       <r>    1.4356    1.0000 </r>
       <r>    1.5076    1.0000 </r>
       <r>    1.5201    1.0000 </r>
       <r>    1.5601    1.0000 </r>
       <r>    1.5964    1.0000 </r>
       <r>    1.6134    1.0000 </r>
       <r>    1.7018    1.0000 </r>
       <r>    1.7388    1.0000 </r>
       <r>    1.8010    1.0000 </r>
       <r>    1.8357    1.0000 </r>
       <r>    1.8539    1.0000 </r>
       <r>    1.8710    1.0000 </r>
       <r>    1.8909    1.0000 </r>
       <r>    2.0054    1.0000 </r>
       <r>    2.1155    1.0000 </r>
       <r>    2.1531    1.0000 </r>
       <r>    2.1794    1.0000 </r>
       <r>    2.2754    1.0000 </r>
       <r>    2.3129    1.0000 </r>
       <r>    2.3664    1.0000 </r>
       <r>    2.5121    1.0000 </r>
       <r>    2.5805    1.0000 </r>
       <r>    2.5846    1.0000 </r>
       <r>    2.5872    1.0000 </r>
       <r>    2.5965    1.0000 </r>
       <r>    2.6023    1.0000 </r>
       <r>    2.6264    1.0000 </r>
       <r>    2.6653    1.0000 </r>
       <r>    2.6851    1.0000 </r>
       <r>    2.6904    1.0000 </r>
       <r>    2.7399    1.0000 </r>
       <r>    2.7548    1.0000 </r>
       <r>    2.8103    1.0000 </r>
       <r>    2.8303    1.0000 </r>
       <r>    2.8509    1.0000 </r>
       <r>    2.8962    1.0000 </r>
       <r>    2.9190    1.0000 </r>
       <r>    2.9454    1.0000 </r>
       <r>    2.9566    1.0000 </r>
       <r>    2.9814    1.0000 </r>
       <r>    3.0566    1.0000 </r>
       <r>    3.0708    1.0000 </r>
       <r>    3.1122    1.0000 </r>
       <r>    3.1444    1.0000 </r>
       <r>    3.1653    1.0000 </r>
       <r>    3.1728    1.0000 </r>
       <r>    3.1858    1.0000 </r>
       <r>    3.2429    1.0000 </r>
       <r>    3.2940    1.0000 </r>
       <r>    3.3409    1.0000 </r>
       <r>    3.3961    1.0000 </r>
       <r>    3.4525    1.0000 </r>
       <r>    3.4763    1.0000 </r>
       <r>    3.7191    1.0000 </r>
       <r>    4.1971    1.0000 </r>
       <r>    4.2051    1.0000 </r>
       <r>    4.2293    1.0000 </r>
       <r>    4.2321    1.0000 </r>
       <r>    5.0965    0.0000 </r>
       <r>    5.1013    0.0000 </r>
       <r>    5.1362    0.0000 </r>
       <r>    5.1372    0.0000 </r>
       <r>    5.7671    0.0000 </r>
       <r>    5.7742    0.0000 </r>
       <r>    5.7998    0.0000 </r>
       <r>    5.8067    0.0000 </r>
       <r>    6.1085    0.0000 </r>
       <r>    6.1249    0.0000 </r>
       <r>    6.1399    0.0000 </r>
       <r>    6.1560    0.0000 </r>
       <r>    6.2447    0.0000 </r>
       <r>    6.2514    0.0000 </r>
       <r>    6.2696    0.0000 </r>
       <r>    6.2817    0.0000 </r>
       <r>    7.1472    0.0000 </r>
       <r>    7.2205    0.0000 </r>
       <r>    7.2407    0.0000 </r>
       <r>    7.3030    0.0000 </r>
       <r>    7.8136    0.0000 </r>
       <r>    7.9050    0.0000 </r>
       <r>    7.9299    0.0000 </r>
       <r>    7.9518    0.0000 </r>
       <r>    8.0087    0.0000 </r>
       <r>    8.0672    0.0000 </r>
       <r>    8.0956    0.0000 </r>
       <r>    8.1974    0.0000 </r>
       <r>    8.4525    0.0000 </r>
       <r>    8.5425    0.0000 </r>
       <r>    8.6807    0.0000 </r>
       <r>    8.7787    0.0000 </r>
       <r>    8.7948    0.0000 </r>
       <r>    8.9342    0.0000 </r>
       <r>    8.9783    0.0000 </r>
       <r>    8.9806    0.0000 </r>
       <r>    9.0250    0.0000 </r>
       <r>    9.0374    0.0000 </r>
       <r>    9.0748    0.0000 </r>
       <r>    9.1351    0.0000 </r>
       <r>    9.1492    0.0000 </r>
       <r>    9.1639    0.0000 </r>
       <r>    9.2468    0.0000 </r>
       <r>    9.2511    0.0000 </r>
       <r>    9.4664    0.0000 </r>
       <r>    9.6029    0.0000 </r>
      </set>
      <set comment="kpoint 2">
       <r>  -40.2247    1.0000 </r>
       <r>  -40.1867    1.0000 </r>
       <r>  -40.0569    1.0000 </r>
       <r>  -40.0521    1.0000 </r>
       <r>  -39.8521    1.0000 </r>
       <r>  -39.7510    1.0000 </r>
       <r>  -39.7166    1.0000 </r>
       <r>  -39.6050    1.0000 </r>
       <r>  -39.5939    1.0000 </r>
       <r>  -39.3668    1.0000 </r>
       <r>  -18.9221    1.0000 </r>
       <r>  -18.9211    1.0000 </r>
       <r>  -18.8527    1.0000 </r>
       <r>  -18.8509    1.0000 </r>
       <r>  -18.8458    1.0000 </r>
       <r>  -18.8441    1.0000 </r>
       <r>  -18.7487    1.0000 </r>
       <r>  -18.7472    1.0000 </r>
       <r>  -18.7356    1.0000 </r>
       <r>  -18.7340    1.0000 </r>
       <r>  -18.7178    1.0000 </r>
       <r>  -18.7144    1.0000 </r>
       <r>  -18.7066    1.0000 </r>
       <r>  -18.7046    1.0000 </r>
       <r>  -18.7039    1.0000 </r>
       <r>  -18.6990    1.0000 </r>
       <r>  -18.6499    1.0000 </r>
       <r>  -18.6464    1.0000 </r>
       <r>  -18.6432    1.0000 </r>
       <r>  -18.6411    1.0000 </r>
       <r>  -18.6400    1.0000 </r>
       <r>  -18.6398    1.0000 </r>
       <r>  -18.6381    1.0000 </r>
       <r>  -18.6372    1.0000 </r>
       <r>  -18.6365    1.0000 </r>
       <r>  -18.6359    1.0000 </r>
       <r>  -18.6358    1.0000 </r>
       <r>  -18.6339    1.0000 </r>
       <r>  -18.6327    1.0000 </r>
       <r>  -18.6326    1.0000 </r>
       <r>  -18.6309    1.0000 </r>
       <r>  -18.6286    1.0000 </r>
       <r>  -18.6278    1.0000 </r>
       <r>  -18.6265    1.0000 </r>
       <r>  -18.6259    1.0000 </r>
       <r>  -18.6249    1.0000 </r>
       <r>  -18.6227    1.0000 </r>
       <r>  -18.6199    1.0000 </r>
       <r>  -18.6196    1.0000 </r>
       <r>  -18.6182    1.0000 </r>
       <r>  -18.5600    1.0000 </r>
       <r>  -18.5596    1.0000 </r>
       <r>  -18.5594    1.0000 </r>
       <r>  -18.5580    1.0000 </r>
       <r>  -18.5488    1.0000 </r>
       <r>  -18.5468    1.0000 </r>
       <r>  -18.5464    1.0000 </r>
       <r>  -18.5422    1.0000 </r>
       <r>  -18.5354    1.0000 </r>
       <r>  -18.5333    1.0000 </r>
       <r>  -18.4894    1.0000 </r>
       <r>  -18.4893    1.0000 </r>
       <r>  -18.4871    1.0000 </r>
       <r>  -18.4862    1.0000 </r>
       <r>  -18.4834    1.0000 </r>
       <r>  -18.4806    1.0000 </r>
       <r>  -18.4793    1.0000 </r>
       <r>  -18.4771    1.0000 </r>
       <r>  -18.4761    1.0000 </r>
       <r>  -18.4749    1.0000 </r>
       <r>  -18.4741    1.0000 </r>
       <r>  -18.4738    1.0000 </r>
       <r>  -18.4731    1.0000 </r>
       <r>  -18.4723    1.0000 </r>
       <r>  -18.4690    1.0000 </r>
       <r>  -18.4668    1.0000 </r>
       <r>  -18.4018    1.0000 </r>
       <r>  -18.3978    1.0000 </r>
       <r>  -18.3887    1.0000 </r>
       <r>  -18.3863    1.0000 </r>
       <r>  -18.3840    1.0000 </r>
       <r>  -18.3819    1.0000 </r>
       <r>  -18.3757    1.0000 </r>
       <r>  -18.3692    1.0000 </r>
       <r>  -18.2963    1.0000 </r>
       <r>  -18.2912    1.0000 </r>
       <r>  -18.1820    1.0000 </r>
       <r>  -18.1811    1.0000 </r>
       <r>  -18.1678    1.0000 </r>
       <r>  -18.1554    1.0000 </r>
       <r>  -13.5366    1.0000 </r>
       <r>  -13.4668    1.0000 </r>
       <r>  -12.8989    1.0000 </r>
       <r>  -12.8404    1.0000 </r>
       <r>  -12.8001    1.0000 </r>
       <r>  -12.7520    1.0000 </r>
       <r>  -12.7386    1.0000 </r>
       <r>  -12.7009    1.0000 </r>
       <r>  -12.6802    1.0000 </r>
       <r>  -12.6701    1.0000 </r>
       <r>  -12.6495    1.0000 </r>
       <r>  -12.6183    1.0000 </r>
       <r>  -12.5833    1.0000 </r>
       <r>  -12.5325    1.0000 </r>
       <r>  -11.9629    1.0000 </r>
       <r>  -11.9077    1.0000 </r>
       <r>   -9.1769    1.0000 </r>
       <r>   -9.0168    1.0000 </r>
       <r>   -8.9018    1.0000 </r>
       <r>   -8.7388    1.0000 </r>
       <r>   -8.3952    1.0000 </r>
       <r>   -8.3850    1.0000 </r>
       <r>   -8.2535    1.0000 </r>
       <r>   -8.2491    1.0000 </r>
       <r>   -8.1926    1.0000 </r>
       <r>   -8.1841    1.0000 </r>
       <r>   -8.0508    1.0000 </r>
       <r>   -8.0478    1.0000 </r>
       <r>   -7.7438    1.0000 </r>
       <r>   -7.6314    1.0000 </r>
       <r>   -7.6260    1.0000 </r>
       <r>   -7.5130    1.0000 </r>
       <r>   -6.0173    1.0000 </r>
       <r>   -6.0057    1.0000 </r>
       <r>   -5.8352    1.0000 </r>
       <r>   -5.8265    1.0000 </r>
       <r>   -5.7995    1.0000 </r>
       <r>   -5.7906    1.0000 </r>
       <r>   -5.7332    1.0000 </r>
       <r>   -5.6579    1.0000 </r>
       <r>   -5.6492    1.0000 </r>
       <r>   -5.6385    1.0000 </r>
       <r>   -5.5232    1.0000 </r>
       <r>   -5.4492    1.0000 </r>
       <r>   -4.5020    1.0000 </r>
       <r>   -4.3413    1.0000 </r>
       <r>   -4.3358    1.0000 </r>
       <r>   -4.1636    1.0000 </r>
       <r>   -1.2203    1.0000 </r>
       <r>   -1.0270    1.0000 </r>
       <r>   -0.8862    1.0000 </r>
       <r>   -0.7101    1.0000 </r>
       <r>   -0.4057    1.0000 </r>
       <r>   -0.2402    1.0000 </r>
       <r>   -0.0064    1.0000 </r>
       <r>    0.0152    1.0000 </r>
       <r>    0.0763    1.0000 </r>
       <r>    0.1187    1.0000 </r>
       <r>    0.1704    1.0000 </r>
       <r>    0.1773    1.0000 </r>
       <r>    0.2587    1.0000 </r>
       <r>    0.3128    1.0000 </r>
       <r>    0.3806    1.0000 </r>
       <r>    0.3985    1.0000 </r>
       <r>    0.4251    1.0000 </r>
       <r>    0.5066    1.0000 </r>
       <r>    0.5362    1.0000 </r>
       <r>    0.5724    1.0000 </r>
       <r>    0.5963    1.0000 </r>
       <r>    0.6249    1.0000 </r>
       <r>    0.6313    1.0000 </r>
       <r>    0.7085    1.0000 </r>
       <r>    0.7172    1.0000 </r>
       <r>    0.8531    1.0000 </r>
       <r>    0.9610    1.0000 </r>
       <r>    1.0138    1.0000 </r>
       <r>    1.0256    1.0000 </r>
       <r>    1.0587    1.0000 </r>
       <r>    1.1111    1.0000 </r>
       <r>    1.1462    1.0000 </r>
       <r>    1.2127    1.0000 </r>
       <r>    1.2293    1.0000 </r>
       <r>    1.2358    1.0000 </r>
       <r>    1.2648    1.0000 </r>
       <r>    1.3109    1.0000 </r>
       <r>    1.3660    1.0000 </r>
       <r>    1.3959    1.0000 </r>
       <r>    1.4679    1.0000 </r>
       <r>    1.5168    1.0000 </r>
       <r>    1.5481    1.0000 </r>
       <r>    1.5587    1.0000 </r>
       <r>    1.5861    1.0000 </r>
       <r>    1.6327    1.0000 </r>
       <r>    1.6583    1.0000 </r>
       <r>    1.7103    1.0000 </r>
       <r>    1.8051    1.0000 </r>
       <r>    1.8294    1.0000 </r>
       <r>    1.8415    1.0000 </r>
       <r>    1.8618    1.0000 </r>
       <r>    1.8950    1.0000 </r>
       <r>    2.0022    1.0000 </r>
       <r>    2.0234    1.0000 </r>
       <r>    2.0450    1.0000 </r>
       <r>    2.0611    1.0000 </r>
       <r>    2.1417    1.0000 </r>
       <r>    2.1953    1.0000 </r>
       <r>    2.2005    1.0000 </r>
       <r>    2.2776    1.0000 </r>
       <r>    2.3081    1.0000 </r>
       <r>    2.3158    1.0000 </r>
       <r>    2.4137    1.0000 </r>
       <r>    2.4440    1.0000 </r>
       <r>    2.4583    1.0000 </r>
       <r>    2.5203    1.0000 </r>
       <r>    2.5452    1.0000 </r>
       <r>    2.5954    1.0000 </r>
       <r>    2.6221    1.0000 </r>
       <r>    2.6727    1.0000 </r>
       <r>    2.6914    1.0000 </r>
       <r>    2.7531    1.0000 </r>
       <r>    2.7778    1.0000 </r>
       <r>    2.8221    1.0000 </r>
       <r>    2.8428    1.0000 </r>
       <r>    2.8707    1.0000 </r>
       <r>    2.8797    1.0000 </r>
       <r>    2.9349    1.0000 </r>
       <r>    2.9437    1.0000 </r>
       <r>    2.9510    1.0000 </r>
       <r>    3.0211    1.0000 </r>
       <r>    3.0592    1.0000 </r>
       <r>    3.1106    1.0000 </r>
       <r>    3.1285    1.0000 </r>
       <r>    3.1463    1.0000 </r>
       <r>    3.1949    1.0000 </r>
       <r>    3.3174    1.0000 </r>
       <r>    3.4057    1.0000 </r>
       <r>    3.4509    1.0000 </r>
       <r>    3.5048    1.0000 </r>
       <r>    3.5115    1.0000 </r>
       <r>    3.5290    1.0000 </r>
       <r>    3.5937    1.0000 </r>
       <r>    3.6316    1.0000 </r>
       <r>    3.6952    1.0000 </r>
       <r>    3.8195    1.0000 </r>
       <r>    5.5710    0.0000 </r>
       <r>    5.5725    0.0000 </r>
       <r>    5.7235    0.0000 </r>
       <r>    5.7265    0.0000 </r>
       <r>    5.7466    0.0000 </r>
       <r>    5.7597    0.0000 </r>
       <r>    5.9136    0.0000 </r>
       <r>    5.9154    0.0000 </r>
       <r>    7.2144    0.0000 </r>
       <r>    7.2680    0.0000 </r>
       <r>    7.2767    0.0000 </r>
       <r>    7.3561    0.0000 </r>
       <r>    7.3944    0.0000 </r>
       <r>    7.4257    0.0000 </r>
       <r>    7.4449    0.0000 </r>
       <r>    7.4703    0.0000 </r>
       <r>    7.5079    0.0000 </r>
       <r>    7.5237    0.0000 </r>
       <r>    7.5916    0.0000 </r>
       <r>    7.6216    0.0000 </r>
       <r>    7.8111    0.0000 </r>
       <r>    7.8231    0.0000 </r>
       <r>    7.8521    0.0000 </r>
       <r>    7.8807    0.0000 </r>
       <r>    7.8922    0.0000 </r>
       <r>    7.9268    0.0000 </r>
       <r>    7.9686    0.0000 </r>
       <r>    7.9703    0.0000 </r>
       <r>    8.0145    0.0000 </r>
       <r>    8.0174    0.0000 </r>
       <r>    8.0580    0.0000 </r>
       <r>    8.1289    0.0000 </r>
       <r>    8.2458    0.0000 </r>
       <r>    8.3149    0.0000 </r>
       <r>    8.4410    0.0000 </r>
       <r>    8.6065    0.0000 </r>
       <r>    8.6334    0.0000 </r>
       <r>    8.7253    0.0000 </r>
       <r>    8.7504    0.0000 </r>
       <r>    8.7683    0.0000 </r>
       <r>    8.7824    0.0000 </r>
       <r>    8.8760    0.0000 </r>
       <r>    8.9327    0.0000 </r>
       <r>    8.9424    0.0000 </r>
       <r>    9.0913    0.0000 </r>
       <r>    9.3684    0.0000 </r>
      </set>
      <set comment="kpoint 3">
       <r>  -40.2247    1.0000 </r>
       <r>  -40.1867    1.0000 </r>
       <r>  -40.0569    1.0000 </r>
       <r>  -40.0521    1.0000 </r>
       <r>  -39.8521    1.0000 </r>
       <r>  -39.7510    1.0000 </r>
       <r>  -39.7165    1.0000 </r>
       <r>  -39.6050    1.0000 </r>
       <r>  -39.5939    1.0000 </r>
       <r>  -39.3668    1.0000 </r>
       <r>  -18.9224    1.0000 </r>
       <r>  -18.9208    1.0000 </r>
       <r>  -18.8527    1.0000 </r>
       <r>  -18.8510    1.0000 </r>
       <r>  -18.8458    1.0000 </r>
       <r>  -18.8441    1.0000 </r>
       <r>  -18.7487    1.0000 </r>
       <r>  -18.7472    1.0000 </r>
       <r>  -18.7356    1.0000 </r>
       <r>  -18.7340    1.0000 </r>
       <r>  -18.7180    1.0000 </r>
       <r>  -18.7146    1.0000 </r>
       <r>  -18.7066    1.0000 </r>
       <r>  -18.7046    1.0000 </r>
       <r>  -18.7040    1.0000 </r>
       <r>  -18.6991    1.0000 </r>
       <r>  -18.6487    1.0000 </r>
       <r>  -18.6453    1.0000 </r>
       <r>  -18.6440    1.0000 </r>
       <r>  -18.6417    1.0000 </r>
       <r>  -18.6402    1.0000 </r>
       <r>  -18.6395    1.0000 </r>
       <r>  -18.6394    1.0000 </r>
       <r>  -18.6375    1.0000 </r>
       <r>  -18.6359    1.0000 </r>
       <r>  -18.6347    1.0000 </r>
       <r>  -18.6346    1.0000 </r>
       <r>  -18.6340    1.0000 </r>
       <r>  -18.6316    1.0000 </r>
       <r>  -18.6311    1.0000 </r>
       <r>  -18.6308    1.0000 </r>
       <r>  -18.6296    1.0000 </r>
       <r>  -18.6288    1.0000 </r>
       <r>  -18.6282    1.0000 </r>
       <r>  -18.6268    1.0000 </r>
       <r>  -18.6250    1.0000 </r>
       <r>  -18.6224    1.0000 </r>
       <r>  -18.6202    1.0000 </r>
       <r>  -18.6196    1.0000 </r>
       <r>  -18.6182    1.0000 </r>
       <r>  -18.5599    1.0000 </r>
       <r>  -18.5596    1.0000 </r>
       <r>  -18.5595    1.0000 </r>
       <r>  -18.5580    1.0000 </r>
       <r>  -18.5488    1.0000 </r>
       <r>  -18.5467    1.0000 </r>
       <r>  -18.5463    1.0000 </r>
       <r>  -18.5422    1.0000 </r>
       <r>  -18.5356    1.0000 </r>
       <r>  -18.5332    1.0000 </r>
       <r>  -18.4894    1.0000 </r>
       <r>  -18.4893    1.0000 </r>
       <r>  -18.4871    1.0000 </r>
       <r>  -18.4862    1.0000 </r>
       <r>  -18.4834    1.0000 </r>
       <r>  -18.4806    1.0000 </r>
       <r>  -18.4793    1.0000 </r>
       <r>  -18.4771    1.0000 </r>
       <r>  -18.4761    1.0000 </r>
       <r>  -18.4749    1.0000 </r>
       <r>  -18.4741    1.0000 </r>
       <r>  -18.4738    1.0000 </r>
       <r>  -18.4731    1.0000 </r>
       <r>  -18.4723    1.0000 </r>
       <r>  -18.4690    1.0000 </r>
       <r>  -18.4668    1.0000 </r>
       <r>  -18.4018    1.0000 </r>
       <r>  -18.3978    1.0000 </r>
       <r>  -18.3887    1.0000 </r>
       <r>  -18.3863    1.0000 </r>
       <r>  -18.3840    1.0000 </r>
       <r>  -18.3819    1.0000 </r>
       <r>  -18.3757    1.0000 </r>
       <r>  -18.3692    1.0000 </r>
       <r>  -18.2963    1.0000 </r>
       <r>  -18.2911    1.0000 </r>
       <r>  -18.1820    1.0000 </r>
       <r>  -18.1811    1.0000 </r>
       <r>  -18.1678    1.0000 </r>
       <r>  -18.1554    1.0000 </r>
       <r>  -13.5364    1.0000 </r>
       <r>  -13.4670    1.0000 </r>
       <r>  -12.9078    1.0000 </r>
       <r>  -12.8271    1.0000 </r>
       <r>  -12.7895    1.0000 </r>
       <r>  -12.7587    1.0000 </r>
       <r>  -12.7424    1.0000 </r>
       <r>  -12.6938    1.0000 </r>
       <r>  -12.6862    1.0000 </r>
       <r>  -12.6751    1.0000 </r>
       <r>  -12.6524    1.0000 </r>
       <r>  -12.6179    1.0000 </r>
       <r>  -12.5812    1.0000 </r>
       <r>  -12.5334    1.0000 </r>
       <r>  -11.9621    1.0000 </r>
       <r>  -11.9092    1.0000 </r>
       <r>   -9.3104    1.0000 </r>
       <r>   -9.0324    1.0000 </r>
       <r>   -8.5393    1.0000 </r>
       <r>   -8.5160    1.0000 </r>
       <r>   -8.4961    1.0000 </r>
       <r>   -8.4530    1.0000 </r>
       <r>   -8.2772    1.0000 </r>
       <r>   -8.2592    1.0000 </r>
       <r>   -8.2311    1.0000 </r>
       <r>   -8.1923    1.0000 </r>
       <r>   -8.0252    1.0000 </r>
       <r>   -8.0228    1.0000 </r>
       <r>   -7.9877    1.0000 </r>
       <r>   -7.9863    1.0000 </r>
       <r>   -7.3515    1.0000 </r>
       <r>   -7.3504    1.0000 </r>
       <r>   -6.3555    1.0000 </r>
       <r>   -6.3466    1.0000 </r>
       <r>   -6.3316    1.0000 </r>
       <r>   -6.3240    1.0000 </r>
       <r>   -5.5384    1.0000 </r>
       <r>   -5.4733    1.0000 </r>
       <r>   -5.3870    1.0000 </r>
       <r>   -5.3837    1.0000 </r>
       <r>   -5.3725    1.0000 </r>
       <r>   -5.2633    1.0000 </r>
       <r>   -5.1453    1.0000 </r>
       <r>   -5.1097    1.0000 </r>
       <r>   -5.0693    1.0000 </r>
       <r>   -5.0042    1.0000 </r>
       <r>   -3.8732    1.0000 </r>
       <r>   -3.5622    1.0000 </r>
       <r>   -1.3190    1.0000 </r>
       <r>   -1.2954    1.0000 </r>
       <r>   -1.1450    1.0000 </r>
       <r>   -1.1090    1.0000 </r>
       <r>   -0.4110    1.0000 </r>
       <r>   -0.4066    1.0000 </r>
       <r>   -0.3929    1.0000 </r>
       <r>   -0.3787    1.0000 </r>
       <r>   -0.3291    1.0000 </r>
       <r>   -0.2916    1.0000 </r>
       <r>   -0.2565    1.0000 </r>
       <r>   -0.2413    1.0000 </r>
       <r>   -0.1472    1.0000 </r>
       <r>    0.0717    1.0000 </r>
       <r>    0.1145    1.0000 </r>
       <r>    0.2187    1.0000 </r>
       <r>    0.2870    1.0000 </r>
       <r>    0.3290    1.0000 </r>
       <r>    0.4131    1.0000 </r>
       <r>    0.4666    1.0000 </r>
       <r>    0.5312    1.0000 </r>
       <r>    0.6215    1.0000 </r>
       <r>    0.7568    1.0000 </r>
       <r>    0.7659    1.0000 </r>
       <r>    0.7992    1.0000 </r>
       <r>    0.8108    1.0000 </r>
       <r>    0.8182    1.0000 </r>
       <r>    0.8480    1.0000 </r>
       <r>    1.0055    1.0000 </r>
       <r>    1.1091    1.0000 </r>
       <r>    1.2091    1.0000 </r>
       <r>    1.2275    1.0000 </r>
       <r>    1.2384    1.0000 </r>
       <r>    1.3445    1.0000 </r>
       <r>    1.3804    1.0000 </r>
       <r>    1.4064    1.0000 </r>
       <r>    1.4912    1.0000 </r>
       <r>    1.5860    1.0000 </r>
       <r>    1.6145    1.0000 </r>
       <r>    1.6366    1.0000 </r>
       <r>    1.7065    1.0000 </r>
       <r>    1.7391    1.0000 </r>
       <r>    1.7641    1.0000 </r>
       <r>    1.7884    1.0000 </r>
       <r>    1.8245    1.0000 </r>
       <r>    1.8417    1.0000 </r>
       <r>    1.8703    1.0000 </r>
       <r>    1.9203    1.0000 </r>
       <r>    1.9571    1.0000 </r>
       <r>    1.9618    1.0000 </r>
       <r>    2.0148    1.0000 </r>
       <r>    2.0569    1.0000 </r>
       <r>    2.1590    1.0000 </r>
       <r>    2.1892    1.0000 </r>
       <r>    2.2313    1.0000 </r>
       <r>    2.3228    1.0000 </r>
       <r>    2.4292    1.0000 </r>
       <r>    2.4715    1.0000 </r>
       <r>    2.5136    1.0000 </r>
       <r>    2.5398    1.0000 </r>
       <r>    2.5631    1.0000 </r>
       <r>    2.5794    1.0000 </r>
       <r>    2.5891    1.0000 </r>
       <r>    2.5903    1.0000 </r>
       <r>    2.5986    1.0000 </r>
       <r>    2.6033    1.0000 </r>
       <r>    2.6551    1.0000 </r>
       <r>    2.6823    1.0000 </r>
       <r>    2.7418    1.0000 </r>
       <r>    2.7692    1.0000 </r>
       <r>    2.7733    1.0000 </r>
       <r>    2.8147    1.0000 </r>
       <r>    2.8344    1.0000 </r>
       <r>    2.8438    1.0000 </r>
       <r>    2.8913    1.0000 </r>
       <r>    2.9261    1.0000 </r>
       <r>    2.9521    1.0000 </r>
       <r>    2.9650    1.0000 </r>
       <r>    2.9876    1.0000 </r>
       <r>    3.0320    1.0000 </r>
       <r>    3.0374    1.0000 </r>
       <r>    3.0673    1.0000 </r>
       <r>    3.1885    1.0000 </r>
       <r>    3.3085    1.0000 </r>
       <r>    3.3481    1.0000 </r>
       <r>    3.3908    1.0000 </r>
       <r>    3.4185    1.0000 </r>
       <r>    3.4394    1.0000 </r>
       <r>    3.4504    1.0000 </r>
       <r>    3.4777    1.0000 </r>
       <r>    3.5715    1.0000 </r>
       <r>    3.6683    1.0000 </r>
       <r>    4.2458    1.0000 </r>
       <r>    4.2532    1.0000 </r>
       <r>    4.2803    1.0000 </r>
       <r>    4.2828    1.0000 </r>
       <r>    5.1657    0.0000 </r>
       <r>    5.1705    0.0000 </r>
       <r>    5.2015    0.0000 </r>
       <r>    5.2041    0.0000 </r>
       <r>    5.7759    0.0000 </r>
       <r>    5.7825    0.0000 </r>
       <r>    5.8064    0.0000 </r>
       <r>    5.8156    0.0000 </r>
       <r>    6.1658    0.0000 </r>
       <r>    6.1802    0.0000 </r>
       <r>    6.1840    0.0000 </r>
       <r>    6.2065    0.0000 </r>
       <r>    6.2571    0.0000 </r>
       <r>    6.2617    0.0000 </r>
       <r>    6.2867    0.0000 </r>
       <r>    6.2942    0.0000 </r>
       <r>    6.8114    0.0000 </r>
       <r>    6.9030    0.0000 </r>
       <r>    6.9788    0.0000 </r>
       <r>    7.0730    0.0000 </r>
       <r>    7.2778    0.0000 </r>
       <r>    7.3669    0.0000 </r>
       <r>    7.4108    0.0000 </r>
       <r>    7.5415    0.0000 </r>
       <r>    7.7547    0.0000 </r>
       <r>    7.8310    0.0000 </r>
       <r>    7.9395    0.0000 </r>
       <r>    7.9747    0.0000 </r>
       <r>    8.0189    0.0000 </r>
       <r>    8.3111    0.0000 </r>
       <r>    8.3434    0.0000 </r>
       <r>    8.4758    0.0000 </r>
       <r>    8.6758    0.0000 </r>
       <r>    8.8666    0.0000 </r>
       <r>    8.9019    0.0000 </r>
       <r>    8.9487    0.0000 </r>
       <r>    9.0153    0.0000 </r>
       <r>    9.0493    0.0000 </r>
       <r>    9.0823    0.0000 </r>
       <r>    9.0958    0.0000 </r>
       <r>    9.1094    0.0000 </r>
       <r>    9.1618    0.0000 </r>
       <r>    9.1999    0.0000 </r>
       <r>    9.2052    0.0000 </r>
       <r>    9.5024    0.0000 </r>
       <r>    9.7287    0.0000 </r>
      </set>
      <set comment="kpoint 4">
       <r>  -40.2247    1.0000 </r>
       <r>  -40.1867    1.0000 </r>
       <r>  -40.0569    1.0000 </r>
       <r>  -40.0521    1.0000 </r>
       <r>  -39.8521    1.0000 </r>
       <r>  -39.7510    1.0000 </r>
       <r>  -39.7165    1.0000 </r>
       <r>  -39.6050    1.0000 </r>
       <r>  -39.5939    1.0000 </r>
       <r>  -39.3668    1.0000 </r>
       <r>  -18.9224    1.0000 </r>
       <r>  -18.9208    1.0000 </r>
       <r>  -18.8527    1.0000 </r>
       <r>  -18.8509    1.0000 </r>
       <r>  -18.8458    1.0000 </r>
       <r>  -18.8441    1.0000 </r>
       <r>  -18.7487    1.0000 </r>
       <r>  -18.7472    1.0000 </r>
       <r>  -18.7356    1.0000 </r>
       <r>  -18.7340    1.0000 </r>
       <r>  -18.7178    1.0000 </r>
       <r>  -18.7144    1.0000 </r>
       <r>  -18.7066    1.0000 </r>
       <r>  -18.7045    1.0000 </r>
       <r>  -18.7039    1.0000 </r>
       <r>  -18.6990    1.0000 </r>
       <r>  -18.6499    1.0000 </r>
       <r>  -18.6464    1.0000 </r>
       <r>  -18.6432    1.0000 </r>
       <r>  -18.6411    1.0000 </r>
       <r>  -18.6400    1.0000 </r>
       <r>  -18.6398    1.0000 </r>
       <r>  -18.6382    1.0000 </r>
       <r>  -18.6372    1.0000 </r>
       <r>  -18.6365    1.0000 </r>
       <r>  -18.6359    1.0000 </r>
       <r>  -18.6358    1.0000 </r>
       <r>  -18.6339    1.0000 </r>
       <r>  -18.6327    1.0000 </r>
       <r>  -18.6326    1.0000 </r>
       <r>  -18.6309    1.0000 </r>
       <r>  -18.6287    1.0000 </r>
       <r>  -18.6278    1.0000 </r>
       <r>  -18.6265    1.0000 </r>
       <r>  -18.6259    1.0000 </r>
       <r>  -18.6249    1.0000 </r>
       <r>  -18.6226    1.0000 </r>
       <r>  -18.6200    1.0000 </r>
       <r>  -18.6195    1.0000 </r>
       <r>  -18.6182    1.0000 </r>
       <r>  -18.5599    1.0000 </r>
       <r>  -18.5596    1.0000 </r>
       <r>  -18.5595    1.0000 </r>
       <r>  -18.5580    1.0000 </r>
       <r>  -18.5488    1.0000 </r>
       <r>  -18.5468    1.0000 </r>
       <r>  -18.5464    1.0000 </r>
       <r>  -18.5422    1.0000 </r>
       <r>  -18.5356    1.0000 </r>
       <r>  -18.5332    1.0000 </r>
       <r>  -18.4894    1.0000 </r>
       <r>  -18.4893    1.0000 </r>
       <r>  -18.4871    1.0000 </r>
       <r>  -18.4862    1.0000 </r>
       <r>  -18.4834    1.0000 </r>
       <r>  -18.4806    1.0000 </r>
       <r>  -18.4793    1.0000 </r>
       <r>  -18.4771    1.0000 </r>
       <r>  -18.4761    1.0000 </r>
       <r>  -18.4749    1.0000 </r>
[...]
       <r>    8.8713    0.0000 </r>
       <r>    8.8871    0.0000 </r>
       <r>    8.9037    0.0000 </r>
       <r>    8.9151    0.0000 </r>
       <r>    8.9359    0.0000 </r>
      </set>
     </set>
    </set>
   </array>
  </eigenvalues>
  <separator name="orbital magnetization" >
   <v name="MAGDIPOLOUT">      0.00000000      0.00000000      0.00000000</v>
  </separator>
  <dos>
   <i name="efermi">      4.39614689 </i>
   <total>
    <array>
     <dimension dim="1">gridpoints</dimension>
     <dimension dim="2">spin</dimension>
     <field>energy</field>
     <field>total</field>
     <field>integrated</field>
     <set>
      <set comment="spin 1">
       <r>   -42.7224     0.0000     0.0000 </r>
       <r>   -42.5392     0.0000     0.0000 </r>
       <r>   -42.3561     0.0000     0.0000 </r>
       <r>   -42.1729     0.0000     0.0000 </r>
       <r>   -41.9897     0.0000     0.0000 </r>
       <r>   -41.8066     0.0000     0.0000 </r>
       <r>   -41.6234     0.0000     0.0000 </r>
       <r>   -41.4403     0.0000     0.0000 </r>
       <r>   -41.2571     0.0000     0.0000 </r>
       <r>   -41.0739     0.0000     0.0000 </r>
       <r>   -40.8908     0.0000     0.0000 </r>
       <r>   -40.7076     0.0000     0.0000 </r>
       <r>   -40.5244     0.0000     0.0000 </r>
       <r>   -40.3413     0.0000     0.0000 </r>
       <r>   -40.1581     0.0000     4.0000 </r>
       <r>   -39.9750     0.0000     8.0000 </r>
       <r>   -39.7918     0.0000    10.0000 </r>
       <r>   -39.6086     0.0000    14.0000 </r>
       <r>   -39.4255     0.0000    18.0000 </r>
       <r>   -39.2423     0.0000    20.0000 </r>
       <r>   -39.0591     0.0000    20.0000 </r>
       <r>   -38.8760     0.0000    20.0000 </r>
       <r>   -38.6928     0.0000    20.0000 </r>
       <r>   -38.5097     0.0000    20.0000 </r>
       <r>   -38.3265     0.0000    20.0000 </r>
       <r>   -38.1433     0.0000    20.0000 </r>
       <r>   -37.9602     0.0000    20.0000 </r>
       <r>   -37.7770     0.0000    20.0000 </r>
       <r>   -37.5938     0.0000    20.0000 </r>
       <r>   -37.4107     0.0000    20.0000 </r>
       <r>   -37.2275     0.0000    20.0000 </r>
       <r>   -37.0444     0.0000    20.0000 </r>
       <r>   -36.8612     0.0000    20.0000 </r>
       <r>   -36.6780     0.0000    20.0000 </r>
       <r>   -36.4949     0.0000    20.0000 </r>
       <r>   -36.3117     0.0000    20.0000 </r>
       <r>   -36.1285     0.0000    20.0000 </r>
       <r>   -35.9454     0.0000    20.0000 </r>
       <r>   -35.7622     0.0000    20.0000 </r>
       <r>   -35.5791     0.0000    20.0000 </r>
       <r>   -35.3959     0.0000    20.0000 </r>
       <r>   -35.2127     0.0000    20.0000 </r>
       <r>   -35.0296     0.0000    20.0000 </r>
       <r>   -34.8464     0.0000    20.0000 </r>
       <r>   -34.6632     0.0000    20.0000 </r>
       <r>   -34.4801     0.0000    20.0000 </r>
       <r>   -34.2969     0.0000    20.0000 </r>
       <r>   -34.1138     0.0000    20.0000 </r>
       <r>   -33.9306     0.0000    20.0000 </r>
       <r>   -33.7474     0.0000    20.0000 </r>
       <r>   -33.5643     0.0000    20.0000 </r>
       <r>   -33.3811     0.0000    20.0000 </r>
       <r>   -33.1979     0.0000    20.0000 </r>
       <r>   -33.0148     0.0000    20.0000 </r>
       <r>   -32.8316     0.0000    20.0000 </r>
       <r>   -32.6485     0.0000    20.0000 </r>
       <r>   -32.4653     0.0000    20.0000 </r>
       <r>   -32.2821     0.0000    20.0000 </r>
       <r>   -32.0990     0.0000    20.0000 </r>
       <r>   -31.9158     0.0000    20.0000 </r>
       <r>   -31.7326     0.0000    20.0000 </r>
       <r>   -31.5495     0.0000    20.0000 </r>
       <r>   -31.3663     0.0000    20.0000 </r>
       <r>   -31.1832     0.0000    20.0000 </r>
       <r>   -31.0000     0.0000    20.0000 </r>
       <r>   -30.8168     0.0000    20.0000 </r>
       <r>   -30.6337     0.0000    20.0000 </r>
       <r>   -30.4505     0.0000    20.0000 </r>
       <r>   -30.2673     0.0000    20.0000 </r>
       <r>   -30.0842     0.0000    20.0000 </r>
       <r>   -29.9010     0.0000    20.0000 </r>
       <r>   -29.7179     0.0000    20.0000 </r>
       <r>   -29.5347     0.0000    20.0000 </r>
       <r>   -29.3515     0.0000    20.0000 </r>
       <r>   -29.1684     0.0000    20.0000 </r>
       <r>   -28.9852     0.0000    20.0000 </r>
       <r>   -28.8020     0.0000    20.0000 </r>
       <r>   -28.6189     0.0000    20.0000 </r>
       <r>   -28.4357     0.0000    20.0000 </r>
       <r>   -28.2526     0.0000    20.0000 </r>
       <r>   -28.0694     0.0000    20.0000 </r>
       <r>   -27.8862     0.0000    20.0000 </r>
       <r>   -27.7031     0.0000    20.0000 </r>
       <r>   -27.5199     0.0000    20.0000 </r>
       <r>   -27.3367     0.0000    20.0000 </r>
       <r>   -27.1536     0.0000    20.0000 </r>
       <r>   -26.9704     0.0000    20.0000 </r>
       <r>   -26.7873     0.0000    20.0000 </r>
       <r>   -26.6041     0.0000    20.0000 </r>
       <r>   -26.4209     0.0000    20.0000 </r>
       <r>   -26.2378     0.0000    20.0000 </r>
       <r>   -26.0546     0.0000    20.0000 </r>
       <r>   -25.8714     0.0000    20.0000 </r>
       <r>   -25.6883     0.0000    20.0000 </r>
       <r>   -25.5051     0.0000    20.0000 </r>
       <r>   -25.3220     0.0000    20.0000 </r>
       <r>   -25.1388     0.0000    20.0000 </r>
       <r>   -24.9556     0.0000    20.0000 </r>
       <r>   -24.7725     0.0000    20.0000 </r>
       <r>   -24.5893     0.0000    20.0000 </r>
       <r>   -24.4061     0.0000    20.0000 </r>
       <r>   -24.2230     0.0000    20.0000 </r>
       <r>   -24.0398     0.0000    20.0000 </r>
       <r>   -23.8567     0.0000    20.0000 </r>
       <r>   -23.6735     0.0000    20.0000 </r>
       <r>   -23.4903     0.0000    20.0000 </r>
       <r>   -23.3072     0.0000    20.0000 </r>
       <r>   -23.1240     0.0000    20.0000 </r>
       <r>   -22.9408     0.0000    20.0000 </r>
       <r>   -22.7577     0.0000    20.0000 </r>
       <r>   -22.5745     0.0000    20.0000 </r>
       <r>   -22.3914     0.0000    20.0000 </r>
       <r>   -22.2082     0.0000    20.0000 </r>
       <r>   -22.0250     0.0000    20.0000 </r>
       <r>   -21.8419     0.0000    20.0000 </r>
       <r>   -21.6587     0.0000    20.0000 </r>
       <r>   -21.4755     0.0000    20.0000 </r>
       <r>   -21.2924     0.0000    20.0000 </r>
       <r>   -21.1092     0.0000    20.0000 </r>
       <r>   -20.9261     0.0000    20.0000 </r>
       <r>   -20.7429     0.0000    20.0000 </r>
       <r>   -20.5597     0.0000    20.0000 </r>
       <r>   -20.3766     0.0000    20.0000 </r>
       <r>   -20.1934     0.0000    20.0000 </r>
       <r>   -20.0102     0.0000    20.0000 </r>
       <r>   -19.8271     0.0000    20.0000 </r>
       <r>   -19.6439     0.0000    20.0000 </r>
       <r>   -19.4608     0.0000    20.0000 </r>
       <r>   -19.2776     0.0000    20.0000 </r>
       <r>   -19.0944     0.0000    20.0000 </r>
       <r>   -18.9113     0.0000    24.0000 </r>
       <r>   -18.7281     0.0000    40.0000 </r>
       <r>   -18.5449     0.0000   114.0000 </r>
       <r>   -18.3618     0.0000   168.0000 </r>
       <r>   -18.1786     0.0000   176.0000 </r>
       <r>   -17.9955     0.0000   180.0000 </r>
       <r>   -17.8123     0.0000   180.0000 </r>
       <r>   -17.6291     0.0000   180.0000 </r>
       <r>   -17.4460     0.0000   180.0000 </r>
       <r>   -17.2628     0.0000   180.0000 </r>
       <r>   -17.0796     0.0000   180.0000 </r>
       <r>   -16.8965     0.0000   180.0000 </r>
       <r>   -16.7133     0.0000   180.0000 </r>
       <r>   -16.5302     0.0000   180.0000 </r>
       <r>   -16.3470     0.0000   180.0000 </r>
       <r>   -16.1638     0.0000   180.0000 </r>
       <r>   -15.9807     0.0000   180.0000 </r>
       <r>   -15.7975     0.0000   180.0000 </r>
       <r>   -15.6144     0.0000   180.0000 </r>
       <r>   -15.4312     0.0000   180.0000 </r>
       <r>   -15.2480     0.0000   180.0000 </r>
       <r>   -15.0649     0.0000   180.0000 </r>
       <r>   -14.8817     0.0000   180.0000 </r>
       <r>   -14.6985     0.0000   180.0000 </r>
       <r>   -14.5154     0.0000   180.0000 </r>
       <r>   -14.3322     0.0000   180.0000 </r>
       <r>   -14.1491     0.0000   180.0000 </r>
       <r>   -13.9659     0.0000   180.0000 </r>
       <r>   -13.7827     0.0000   180.0000 </r>
       <r>   -13.5996     0.0000   180.0000 </r>
       <r>   -13.4164     0.0000   184.0000 </r>
       <r>   -13.2332     0.0000   184.0000 </r>
       <r>   -13.0501     0.0000   184.0000 </r>
       <r>   -12.8669     0.0000   186.0000 </r>
       <r>   -12.6838    61.8935   196.0723 </r>
       <r>   -12.5006     0.0000   208.0000 </r>
       <r>   -12.3174     0.0000   208.0000 </r>
       <r>   -12.1343     0.0000   208.0000 </r>
       <r>   -11.9511     0.0000   210.0000 </r>
       <r>   -11.7679     0.0000   212.0000 </r>
       <r>   -11.5848     0.0000   212.0000 </r>
       <r>   -11.4016     0.0000   212.0000 </r>
       <r>   -11.2185     0.0000   212.0000 </r>
       <r>   -11.0353     0.0000   212.0000 </r>
       <r>   -10.8521     0.0000   212.0000 </r>
       <r>   -10.6690     0.0000   212.0000 </r>
       <r>   -10.4858     0.0000   212.0000 </r>
       <r>   -10.3026     0.0000   212.0000 </r>
       <r>   -10.1195     0.0000   212.0000 </r>
       <r>    -9.9363     0.0000   212.0000 </r>
       <r>    -9.7532     0.0000   212.0000 </r>
       <r>    -9.5700     0.0000   212.0000 </r>
       <r>    -9.3868     0.0000   212.0000 </r>
       <r>    -9.2037     8.3721   212.4673 </r>
       <r>    -9.0205    26.3916   215.0424 </r>
       <r>    -8.8373    12.2841   216.6723 </r>
       <r>    -8.6542    12.6091   219.4528 </r>
       <r>    -8.4710    22.1355   222.0921 </r>
       <r>    -8.2879    38.6447   227.1714 </r>
       <r>    -8.1047    15.0313   229.9277 </r>
       <r>    -7.9215    21.2354   234.8519 </r>
       <r>    -7.7384    18.0458   238.1039 </r>
       <r>    -7.5552    22.1956   241.6291 </r>
       <r>    -7.3720     2.5549   243.9712 </r>
       <r>    -7.1889     0.0000   244.0000 </r>
       <r>    -7.0057     0.0000   244.0000 </r>
       <r>    -6.8226     0.0000   244.0000 </r>
       <r>    -6.6394     0.0000   244.0000 </r>
       <r>    -6.4562     0.0000   244.0000 </r>
       <r>    -6.2731     7.4303   244.2837 </r>
       <r>    -6.0899    25.2992   247.3132 </r>
       <r>    -5.9067    21.3372   251.4425 </r>
       <r>    -5.7236    30.6777   255.6730 </r>
       <r>    -5.5404    20.2963   260.0351 </r>
       <r>    -5.3573    20.0700   263.8559 </r>
       <r>    -5.1741    11.8509   266.9319 </r>
       <r>    -4.9909     3.7592   268.1117 </r>
       <r>    -4.8078     7.5978   269.2589 </r>
       <r>    -4.6246     9.3394   270.7558 </r>
       <r>    -4.4414     7.9559   272.5093 </r>
       <r>    -4.2583     6.9891   273.7124 </r>
       <r>    -4.0751     5.6750   274.9661 </r>
       <r>    -3.8920     2.4672   275.7108 </r>
       <r>    -3.7088     0.6764   275.9629 </r>
       <r>    -3.5256     0.0000   276.0000 </r>
       <r>    -3.3425     0.0000   276.0000 </r>
       <r>    -3.1593     0.0000   276.0000 </r>
       <r>    -2.9761     0.0000   276.0000 </r>
       <r>    -2.7930     0.0000   276.0000 </r>
       <r>    -2.6098     0.0000   276.0000 </r>
       <r>    -2.4267     0.0000   276.0000 </r>
       <r>    -2.2435     0.0000   276.0000 </r>
       <r>    -2.0603     0.0000   276.0000 </r>
       <r>    -1.8772     0.0000   276.0000 </r>
       <r>    -1.6940     0.0000   276.0000 </r>
       <r>    -1.5108     0.0000   276.0000 </r>
       <r>    -1.3277     0.9428   276.0165 </r>
       <r>    -1.1445     8.4899   277.0159 </r>
       <r>    -0.9614    13.0433   278.8515 </r>
       <r>    -0.7782    11.2147   281.2363 </r>
       <r>    -0.5950     6.7747   282.8639 </r>
       <r>    -0.4119    13.7183   284.0995 </r>
       <r>    -0.2287    23.2651   288.0270 </r>
       <r>    -0.0455    43.7420   293.7873 </r>
       <r>     0.1376    28.4315   300.4870 </r>
       <r>     0.3208    42.8914   306.6248 </r>
       <r>     0.5039    40.7986   313.8145 </r>
       <r>     0.6871    32.2860   321.1763 </r>
       <r>     0.8703    35.7630   327.5351 </r>
       <r>     1.0534    35.6428   334.7641 </r>
       <r>     1.2366    45.5289   343.0191 </r>
       <r>     1.4198    50.4140   351.6168 </r>
       <r>     1.6029    51.5538   360.9493 </r>
       <r>     1.7861    49.4921   369.8629 </r>
       <r>     1.9692    35.9401   379.5736 </r>
       <r>     2.1524    45.7799   386.8696 </r>
       <r>     2.3356    44.3834   394.6074 </r>
       <r>     2.5187    65.2982   404.1346 </r>
       <r>     2.7019    67.3426   416.3251 </r>
       <r>     2.8851    70.7026   428.0670 </r>
       <r>     3.0682    64.3743   440.9505 </r>
       <r>     3.2514    29.2684   449.2549 </r>
       <r>     3.4345    37.5222   455.4777 </r>
       <r>     3.6177    21.0589   461.5898 </r>
       <r>     3.8009    17.4453   464.2989 </r>
       <r>     3.9840     9.3224   466.7738 </r>
       <r>     4.1672     2.7895   467.8833 </r>
       <r>     4.3504     0.0000   468.0000 </r>
       <r>     4.5335     0.0000   468.0000 </r>
       <r>     4.7167     0.0000   468.0000 </r>
       <r>     4.8998     0.0000   468.0000 </r>
       <r>     5.0830     0.0000   468.0000 </r>
       <r>     5.2662     2.5121   468.1536 </r>
       <r>     5.4493     6.4803   468.9770 </r>
       <r>     5.6325     9.4635   470.5071 </r>
       <r>     5.8157    22.1524   473.2697 </r>
       <r>     5.9988    13.5149   476.6978 </r>
       <r>     6.1820    11.5256   478.9675 </r>
       <r>     6.3651    12.3827   481.1156 </r>
       <r>     6.5483    14.0899   483.5403 </r>
       <r>     6.7315    15.7732   486.2756 </r>
       <r>     6.9146    17.6740   489.3254 </r>
       <r>     7.0978    22.3444   492.8957 </r>
       <r>     7.2810    34.8611   498.0835 </r>
       <r>     7.4641    44.5563   505.7654 </r>
       <r>     7.6473    25.7746   511.0089 </r>
       <r>     7.8304    50.0032   517.8362 </r>
       <r>     8.0136    41.3227   526.8026 </r>
       <r>     8.1968    21.3776   531.9270 </r>
       <r>     8.3799    18.5809   535.4684 </r>
       <r>     8.5631    23.6334   539.2366 </r>
       <r>     8.7463    25.8565   543.9921 </r>
       <r>     8.9294    44.0614   551.5193 </r>
       <r>     9.1126    17.8886   556.9451 </r>
       <r>     9.2957     7.0453   558.9358 </r>
       <r>     9.4789     2.2430   559.7956 </r>
       <r>     9.6621     0.1961   559.9956 </r>
       <r>     9.8452     0.0000   560.0000 </r>
       <r>    10.0284     0.0000   560.0000 </r>
       <r>    10.2116     0.0000   560.0000 </r>
       <r>    10.3947     0.0000   560.0000 </r>
       <r>    10.5779     0.0000   560.0000 </r>
       <r>    10.7610     0.0000   560.0000 </r>
       <r>    10.9442     0.0000   560.0000 </r>
       <r>    11.1274     0.0000   560.0000 </r>
       <r>    11.3105     0.0000   560.0000 </r>
       <r>    11.4937     0.0000   560.0000 </r>
       <r>    11.6769     0.0000   560.0000 </r>
       <r>    11.8600     0.0000   560.0000 </r>
       <r>    12.0432     0.0000   560.0000 </r>
       <r>    12.2263     0.0000   560.0000 </r>
      </set>
     </set>
    </array>
   </total>
  </dos>
 </calculation>
 <structure name="finalpos" >
  <crystal>
   <varray name="basis" >
    <v>      11.17850000       0.00000000       0.00000000 </v>
    <v>       0.00000000       9.57460000       0.00000000 </v>
    <v>       0.00000000       0.00000000      11.18240000 </v>
   </varray>
   <i name="volume">   1196.84853820 </i>
   <varray name="rec_basis" >
    <v>       0.08945744       0.00000000       0.00000000 </v>
    <v>       0.00000000       0.10444301       0.00000000 </v>
    <v>       0.00000000       0.00000000       0.08942624 </v>
   </varray>
  </crystal>
  <varray name="positions" >
   <v>       0.37539000       0.00017000       0.43687000 </v>
   <v>       0.12461000       0.99984000       0.18687000 </v>
   <v>       0.37461000       0.00017000       0.18687000 </v>
   <v>       0.62539000       0.99984000       0.43687000 </v>
   <v>       0.87539000       0.00017000       0.43687000 </v>
   <v>       0.62461000       0.99984000       0.18687000 </v>
   <v>       0.12539000       0.99984000       0.93687000 </v>
   <v>       0.37539000       0.00017000       0.93687000 </v>
   <v>       0.62539000       0.99984000       0.93687000 </v>
   <v>       0.87461000       0.00017000       0.68687000 </v>
   <v>       0.87461000       0.00017000       0.18687000 </v>
   <v>       0.12461000       0.99984000       0.68687000 </v>
   <v>       0.62461000       0.99984000       0.68687000 </v>
   <v>       0.00013000       0.29519000       0.06281000 </v>
   <v>       0.25013000       0.70481000       0.06281000 </v>
   <v>       0.24987000       0.29519000       0.31282000 </v>
   <v>       0.49987000       0.70481000       0.31282000 </v>
   <v>       0.50013000       0.29519000       0.06281000 </v>
   <v>       0.75013000       0.70481000       0.06281000 </v>
   <v>       0.74987000       0.29519000       0.31282000 </v>
   <v>       0.99987000       0.70481000       0.31282000 </v>
   <v>       0.00013000       0.29519000       0.56281000 </v>
   <v>       0.25013000       0.70481000       0.56281000 </v>
   <v>       0.24987000       0.29519000       0.81282000 </v>
   <v>       0.49987000       0.70481000       0.81282000 </v>
   <v>       0.50013000       0.29519000       0.56281000 </v>
   <v>       0.75013000       0.70481000       0.56281000 </v>
   <v>       0.74987000       0.29519000       0.81282000 </v>
   <v>       0.99987000       0.70481000       0.81282000 </v>
   <v>       0.25005000       0.32677000       0.06286000 </v>
   <v>       0.00005000       0.67323000       0.06286000 </v>
   <v>       0.49995000       0.32677000       0.31286000 </v>
   <v>       0.24995000       0.67323000       0.31286000 </v>
   <v>       0.75005000       0.32677000       0.06286000 </v>
   <v>       0.50005000       0.67323000       0.06286000 </v>
   <v>       0.99995000       0.32677000       0.31286000 </v>
   <v>       0.74995000       0.67323000       0.31286000 </v>
   <v>       0.25005000       0.32677000       0.56286000 </v>
   <v>       0.00005000       0.67323000       0.56286000 </v>
   <v>       0.49995000       0.32677000       0.81286000 </v>
   <v>       0.24995000       0.67323000       0.81286000 </v>
   <v>       0.75005000       0.32677000       0.56286000 </v>
   <v>       0.50005000       0.67323000       0.56286000 </v>
   <v>       0.99995000       0.32677000       0.81286000 </v>
   <v>       0.74995000       0.67323000       0.81286000 </v>
   <v>       0.49987000       0.07798000       0.06246000 </v>
   <v>       0.24987000       0.92202000       0.06246000 </v>
   <v>       0.25013000       0.07798000       0.31246000 </v>
   <v>       0.00013000       0.92202000       0.31246000 </v>
   <v>       0.99987000       0.07798000       0.06246000 </v>
   <v>       0.74987000       0.92202000       0.06246000 </v>
   <v>       0.75013000       0.07798000       0.31246000 </v>
   <v>       0.50013000       0.92202000       0.31246000 </v>
   <v>       0.49987000       0.07798000       0.56246000 </v>
   <v>       0.24987000       0.92202000       0.56246000 </v>
   <v>       0.25013000       0.07798000       0.81246000 </v>
   <v>       0.00013000       0.92202000       0.81246000 </v>
   <v>       0.99987000       0.07798000       0.56246000 </v>
   <v>       0.74987000       0.92202000       0.56246000 </v>
   <v>       0.75013000       0.07798000       0.81246000 </v>
   <v>       0.50013000       0.92202000       0.81246000 </v>
  </varray>
 </structure>
</modeling>
