<?xml version="1.0" encoding="ISO-8859-1"?>
<modeling>
 <generator>
  <i name="program" type="string">vasp </i>
  <i name="version" type="string">5.4.4.18Apr17-6-g9f103f2a35  </i>
  <i name="subversion" type="string">(build Jul 31 2017 11:33:29) complex            parallel </i>
  <i name="platform" type="string">LinuxIFC </i>
  <i name="date" type="string">2021 09 22 </i>
  <i name="time" type="string">16:10:00 </i>
 </generator>
 <incar>
  <i type="string" name="SYSTEM"> La2O2S</i>
  <i type="string" name="PREC">normal</i>
  <i type="int" name="NELMIN">     4</i>
  <i type="int" name="IBRION">     2</i>
  <i type="int" name="NFREE">    10</i>
  <i name="EDIFF">      0.00000100</i>
  <i name="EDIFFG">     -0.01000000</i>
  <i type="int" name="NSW">   200</i>
  <i type="int" name="ISIF">     3</i>
  <i name="ENCUT">    600.00000000</i>
  <i name="ENAUG">    900.00000000</i>
  <i type="int" name="ISMEAR">    -5</i>
  <i type="logical" name="LWAVE"> F  </i>
  <i type="logical" name="LCHARG"> F  </i>
  <v type="int" name="KPOINT_BSE">    -1     0     0     0</v>
 </incar>
 <structure name="primitive_cell" >
  <crystal>
   <varray name="basis" >
    <v>      11.17850000       0.00000000       0.00000000 </v>
    <v>       0.00000000       9.57460000       0.00000000 </v>
    <v>       0.00000000       0.00000000      11.18240000 </v>
   </varray>
   <i name="volume">   1196.84853820 </i>
   <varray name="rec_basis" >
    <v>       0.08945744       0.00000000       0.00000000 </v>
    <v>       0.00000000       0.10444301       0.00000000 </v>
    <v>       0.00000000       0.00000000       0.08942624 </v>
   </varray>
  </crystal>
  <varray name="positions" >
   <v>       0.37461000       0.00017000       0.18687000 </v>
   <v>       0.24987000      -0.07798000       0.06246000 </v>
   <v>       0.49987000       0.07798000       0.06246000 </v>
   <v>       0.25013000       0.07798000       0.31246000 </v>
   <v>      -0.49987000      -0.07798000       0.31246000 </v>
   <v>      -0.37539000      -0.00016000       0.18687000 </v>
   <v>       0.25013000      -0.29519000       0.06281000 </v>
   <v>      -0.49987000       0.29519000       0.06281000 </v>
   <v>       0.24987000       0.29519000       0.31282000 </v>
   <v>       0.49987000      -0.29519000       0.31282000 </v>
   <v>       0.25005000       0.32677000       0.06286000 </v>
   <v>      -0.49995000      -0.32677000       0.06286000 </v>
   <v>       0.24995000      -0.32677000       0.31286000 </v>
   <v>       0.49995000       0.32677000       0.31286000 </v>
   <v>       0.12539000      -0.00016000      -0.06313000 </v>
   <v>      -0.37461000      -0.00016000       0.43687000 </v>
   <v>      -0.37461000      -0.00016000      -0.06313000 </v>
   <v>       0.25013000       0.07798000      -0.18754000 </v>
   <v>      -0.00013000       0.07798000       0.06246000 </v>
   <v>       0.00013000      -0.07798000       0.31246000 </v>
   <v>      -0.49987000      -0.07798000      -0.18754000 </v>
   <v>      -0.25013000      -0.07798000       0.06246000 </v>
   <v>       0.24987000      -0.07798000      -0.43754000 </v>
   <v>      -0.24987000       0.07798000       0.31246000 </v>
   <v>       0.49987000       0.07798000      -0.43754000 </v>
   <v>       0.24987000       0.29519000      -0.18718000 </v>
   <v>       0.00013000       0.29519000       0.06281000 </v>
   <v>       0.49987000      -0.29519000      -0.18718000 </v>
   <v>      -0.00013000      -0.29519000       0.31282000 </v>
   <v>      -0.24987000      -0.29519000       0.06281000 </v>
   <v>      -0.25013000       0.29519000       0.31282000 </v>
   <v>       0.25013000      -0.29519000      -0.43719000 </v>
   <v>      -0.49987000       0.29519000      -0.43719000 </v>
   <v>       0.24995000      -0.32677000      -0.18714000 </v>
   <v>       0.49995000       0.32677000      -0.18714000 </v>
   <v>       0.00005000      -0.32677000       0.06286000 </v>
   <v>      -0.00005000       0.32677000       0.31286000 </v>
   <v>      -0.24995000       0.32677000       0.06286000 </v>
   <v>      -0.25005000      -0.32677000       0.31286000 </v>
   <v>       0.25005000       0.32677000      -0.43714000 </v>
   <v>      -0.49995000      -0.32677000      -0.43714000 </v>
   <v>      -0.12539000       0.00017000       0.18687000 </v>
   <v>       0.37461000       0.00017000      -0.31313000 </v>
   <v>       0.00013000      -0.07798000      -0.18754000 </v>
   <v>      -0.24987000       0.07798000      -0.18754000 </v>
   <v>      -0.00013000       0.07798000      -0.43754000 </v>
   <v>      -0.25013000      -0.07798000      -0.43754000 </v>
   <v>      -0.12461000       0.00017000      -0.06313000 </v>
   <v>      -0.12461000       0.00017000       0.43687000 </v>
   <v>       0.12461000      -0.00016000      -0.31313000 </v>
   <v>      -0.37539000      -0.00016000      -0.31313000 </v>
   <v>      -0.00013000      -0.29519000      -0.18718000 </v>
   <v>      -0.25013000       0.29519000      -0.18718000 </v>
   <v>       0.00013000       0.29519000      -0.43719000 </v>
   <v>      -0.24987000      -0.29519000      -0.43719000 </v>
   <v>      -0.00005000       0.32677000      -0.18714000 </v>
   <v>      -0.25005000      -0.32677000      -0.18714000 </v>
   <v>       0.00005000      -0.32677000      -0.43714000 </v>
   <v>      -0.24995000       0.32677000      -0.43714000 </v>
  </varray>
 </structure>
 <varray name="primitive_index" >
  <v type="int" >        1 </v>
  <v type="int" >       45 </v>
  <v type="int" >       44 </v>
  <v type="int" >       46 </v>
  <v type="int" >       51 </v>
  <v type="int" >        2 </v>
  <v type="int" >       13 </v>
  <v type="int" >       16 </v>
  <v type="int" >       14 </v>
  <v type="int" >       15 </v>
  <v type="int" >       28 </v>
  <v type="int" >       33 </v>
  <v type="int" >       31 </v>
  <v type="int" >       30 </v>
  <v type="int" >        3 </v>
  <v type="int" >        7 </v>
  <v type="int" >       10 </v>
  <v type="int" >       54 </v>
  <v type="int" >       48 </v>
  <v type="int" >       47 </v>
  <v type="int" >       59 </v>
  <v type="int" >       49 </v>
  <v type="int" >       53 </v>
  <v type="int" >       50 </v>
  <v type="int" >       52 </v>
  <v type="int" >       22 </v>
  <v type="int" >       12 </v>
  <v type="int" >       23 </v>
  <v type="int" >       19 </v>
  <v type="int" >       17 </v>
  <v type="int" >       18 </v>
  <v type="int" >       21 </v>
  <v type="int" >       24 </v>
  <v type="int" >       39 </v>
  <v type="int" >       38 </v>
  <v type="int" >       29 </v>
  <v type="int" >       34 </v>
  <v type="int" >       32 </v>
  <v type="int" >       35 </v>
  <v type="int" >       36 </v>
  <v type="int" >       41 </v>
  <v type="int" >        9 </v>
  <v type="int" >        5 </v>
  <v type="int" >       55 </v>
  <v type="int" >       58 </v>
  <v type="int" >       56 </v>
  <v type="int" >       57 </v>
  <v type="int" >        6 </v>
  <v type="int" >        8 </v>
  <v type="int" >        4 </v>
  <v type="int" >       11 </v>
  <v type="int" >       27 </v>
  <v type="int" >       26 </v>
  <v type="int" >       20 </v>
  <v type="int" >       25 </v>
  <v type="int" >       42 </v>
  <v type="int" >       43 </v>
  <v type="int" >       37 </v>
  <v type="int" >       40 </v>
 </varray>
 <kpoints>
  <generation param="Gamma">
   <v type="int" name="divisions">       2        2        2 </v>
   <v name="usershift">      0.00000000       0.00000000       0.00000000 </v>
   <v name="genvec1">      0.50000000       0.00000000       0.00000000 </v>
   <v name="genvec2">      0.00000000       0.50000000       0.00000000 </v>
   <v name="genvec3">      0.00000000       0.00000000       0.50000000 </v>
   <v name="shift">      0.00000000       0.00000000       0.00000000 </v>
  </generation>
  <varray name="kpointlist" >
   <v>       0.00000000       0.00000000       0.00000000 </v>
   <v>       0.50000000       0.00000000       0.00000000 </v>
   <v>       0.00000000       0.50000000       0.00000000 </v>
   <v>       0.50000000       0.50000000       0.00000000 </v>
   <v>       0.00000000       0.00000000       0.50000000 </v>
   <v>       0.50000000       0.00000000       0.50000000 </v>
   <v>       0.00000000       0.50000000       0.50000000 </v>
   <v>       0.50000000       0.50000000       0.50000000 </v>
  </varray>
  <varray name="weights" >
   <v>       0.12500000 </v>
   <v>       0.12500000 </v>
   <v>       0.12500000 </v>
   <v>       0.12500000 </v>
   <v>       0.12500000 </v>
   <v>       0.12500000 </v>
   <v>       0.12500000 </v>
   <v>       0.12500000 </v>
  </varray>
  <varray name="tetrahedronlist"  type="int" >
   <v type="int" >        2        1        2        4        5 </v>
   <v type="int" >        2        1        3        4        5 </v>
   <v type="int" >        2        3        4        5        7 </v>
   <v type="int" >        2        2        4        5        6 </v>
   <v type="int" >        2        4        5        6        8 </v>
   <v type="int" >        2        4        5        7        8 </v>
   <v type="int" >        2        1        2        3        6 </v>
   <v type="int" >        2        2        3        4        6 </v>
   <v type="int" >        2        3        4        6        8 </v>
   <v type="int" >        2        1        3        5        6 </v>
   <v type="int" >        2        3        5        6        7 </v>
   <v type="int" >        2        3        6        7        8 </v>
   <v type="int" >        2        2        3        4        7 </v>
   <v type="int" >        2        1        2        3        7 </v>
   <v type="int" >        2        1        2        5        7 </v>
   <v type="int" >        2        2        4        7        8 </v>
   <v type="int" >        2        2        6        7        8 </v>
   <v type="int" >        2        2        5        6        7 </v>
   <v type="int" >        2        1        3        4        8 </v>
   <v type="int" >        2        1        2        4        8 </v>
   <v type="int" >        2        1        2        6        8 </v>
   <v type="int" >        2        1        3        7        8 </v>
   <v type="int" >        2        1        5        7        8 </v>
   <v type="int" >        2        1        5        6        8 </v>
  </varray>
  <i name="volumeweight">      0.02083333 </i>
 </kpoints>
 <parameters>
  <separator name="general" >
   <i type="string" name="SYSTEM">La2O2S</i>
   <i type="logical" name="LCOMPAT"> F  </i>
  </separator>
  <separator name="electronic" >
   <i type="string" name="PREC">normal</i>
   <i name="ENMAX">    600.00000000</i>
   <i name="ENAUG">    900.00000000</i>
   <i name="EDIFF">      0.00000100</i>
   <i type="int" name="IALGO">    38</i>
   <i type="int" name="IWAVPR">    11</i>
   <i type="int" name="NBANDS">   280</i>
   <i name="NELECT">    460.00000000</i>
   <i type="int" name="TURBO">     0</i>
   <i type="int" name="IRESTART">     0</i>
   <i type="int" name="NREBOOT">     0</i>
   <i type="int" name="NMIN">     0</i>
   <i name="EREF">      0.00000000</i>
   <separator name="electronic smearing" >
    <i type="int" name="ISMEAR">    -5</i>
    <i name="SIGMA">      0.20000000</i>
    <i name="KSPACING">      0.50000000</i>
    <i type="logical" name="KGAMMA"> T  </i>
   </separator>
   <separator name="electronic projectors" >
    <i type="logical" name="LREAL"> F  </i>
    <v name="ROPT">      0.00000000      0.00000000      0.00000000      0.00000000      0.00000000</v>
    <i type="int" name="LMAXPAW">  -100</i>
    <i type="int" name="LMAXMIX">     2</i>
    <i type="logical" name="NLSPLINE"> F  </i>
   </separator>
   <separator name="electronic startup" >
    <i type="int" name="ISTART">     0</i>
    <i type="int" name="ICHARG">     2</i>
    <i type="int" name="INIWAV">     1</i>
   </separator>
   <separator name="electronic spin" >
    <i type="int" name="ISPIN">     1</i>
    <i type="logical" name="LNONCOLLINEAR"> F  </i>
    <v name="MAGMOM">      1.00000000      1.00000000      1.00000000      1.00000000      1.00000000      1.00000000      1.00000000      1.00000000      1.00000000      1.00000000      1.00000000      1.00000000      1.00000000      1.00000000      1.00000000      1.00000000      1.00000000      1.00000000      1.00000000      1.00000000
      1.00000000      1.00000000      1.00000000      1.00000000      1.00000000      1.00000000      1.00000000      1.00000000      1.00000000      1.00000000      1.00000000      1.00000000      1.00000000      1.00000000      1.00000000      1.00000000      1.00000000      1.00000000      1.00000000      1.00000000
      1.00000000      1.00000000      1.00000000      1.00000000      1.00000000      1.00000000      1.00000000      1.00000000      1.00000000      1.00000000      1.00000000      1.00000000      1.00000000      1.00000000      1.00000000      1.00000000      1.00000000      1.00000000      1.00000000</v>
    <i name="NUPDOWN">     -1.00000000</i>
    <i type="logical" name="LSORBIT"> F  </i>
    <v name="SAXIS">      0.00000000      0.00000000      1.00000000</v>
    <i type="logical" name="LSPIRAL"> F  </i>
    <v name="QSPIRAL">      0.00000000      0.00000000      0.00000000</v>
    <i type="logical" name="LZEROZ"> F  </i>
   </separator>
   <separator name="electronic exchange-correlation" >
    <i type="logical" name="LASPH"> F  </i>
    <i type="logical" name="LMETAGGA"> F  </i>
   </separator>
   <separator name="electronic convergence" >
    <i type="int" name="NELM">    60</i>
    <i type="int" name="NELMDL">    -5</i>
    <i type="int" name="NELMIN">     4</i>
    <i name="ENINI">    600.00000000</i>
    <separator name="electronic convergence detail" >
     <i type="logical" name="LDIAG"> T  </i>
     <i type="logical" name="LSUBROT"> F  </i>
     <i name="WEIMIN">      0.00100000</i>
     <i name="EBREAK">      0.00000000</i>
     <i name="DEPER">      0.30000000</i>
     <i type="int" name="NRMM">     4</i>
     <i name="TIME">      0.40000000</i>
    </separator>
   </separator>
   <separator name="electronic mixer" >
    <i name="AMIX">      0.40000000</i>
    <i name="BMIX">      1.00000000</i>
    <i name="AMIN">      0.10000000</i>
    <i name="AMIX_MAG">      1.60000000</i>
    <i name="BMIX_MAG">      1.00000000</i>
    <separator name="electronic mixer details" >
     <i type="int" name="IMIX">     4</i>
     <i type="logical" name="MIXFIRST"> F  </i>
     <i type="int" name="MAXMIX">   -45</i>
     <i name="WC">    100.00000000</i>
     <i type="int" name="INIMIX">     1</i>
     <i type="int" name="MIXPRE">     1</i>
     <i type="int" name="MREMOVE">     5</i>
    </separator>
   </separator>
   <separator name="electronic dipolcorrection" >
    <i type="logical" name="LDIPOL"> F  </i>
    <i type="logical" name="LMONO"> F  </i>
    <i type="int" name="IDIPOL">     0</i>
    <i name="EPSILON">      1.00000000</i>
    <v name="DIPOL">   -100.00000000   -100.00000000   -100.00000000</v>
    <i name="EFIELD">      0.00000000</i>
   </separator>
  </separator>
  <separator name="grids" >
   <i type="int" name="NGX">    70</i>
   <i type="int" name="NGY">    60</i>
   <i type="int" name="NGZ">    70</i>
   <i type="int" name="NGXF">   140</i>
   <i type="int" name="NGYF">   120</i>
   <i type="int" name="NGZF">   140</i>
   <i type="logical" name="ADDGRID"> F  </i>
  </separator>
  <separator name="ionic" >
   <i type="int" name="NSW">   200</i>
   <i type="int" name="IBRION">     2</i>
   <i type="int" name="MDALGO">     0</i>
   <i type="int" name="ISIF">     3</i>
   <i name="PSTRESS">      0.00000000</i>
   <i name="EDIFFG">     -0.01000000</i>
   <i type="int" name="NFREE">    10</i>
   <i name="POTIM">      0.50000000</i>
   <i name="SMASS">     -3.00000000</i>
   <i name="SCALEE">      1.00000000</i>
  </separator>
  <separator name="ionic md" >
   <i name="TEBEG">      0.00010000</i>
   <i name="TEEND">      0.00010000</i>
   <i type="int" name="NBLOCK">     1</i>
   <i type="int" name="KBLOCK">   200</i>
   <i type="int" name="NPACO">   256</i>
   <i name="APACO">     16.00000000</i>
  </separator>
  <separator name="symmetry" >
   <i type="int" name="ISYM">     2</i>
   <i name="SYMPREC">      0.00001000</i>
  </separator>
  <separator name="dos" >
   <i type="int" name="LORBIT">     0</i>
   <v name="RWIGS">     -1.00000000     -1.00000000     -1.00000000     -1.00000000     -1.00000000</v>
   <i type="int" name="NEDOS">   301</i>
   <i name="EMIN">     10.00000000</i>
   <i name="EMAX">    -10.00000000</i>
   <i name="EFERMI">      0.00000000</i>
  </separator>
  <separator name="writing" >
   <i type="int" name="NWRITE">     2</i>
   <i type="logical" name="LWAVE"> F  </i>
   <i type="logical" name="LDOWNSAMPLE"> F  </i>
   <i type="logical" name="LCHARG"> F  </i>
   <i type="logical" name="LPARD"> F  </i>
   <i type="logical" name="LVTOT"> F  </i>
   <i type="logical" name="LVHAR"> F  </i>
   <i type="logical" name="LELF"> F  </i>
   <i type="logical" name="LOPTICS"> F  </i>
   <v name="STM">      0.00000000      0.00000000      0.00000000      0.00000000      0.00000000      0.00000000      0.00000000</v>
  </separator>
  <separator name="performance" >
   <i type="int" name="NPAR">    28</i>
   <i type="int" name="NSIM">     4</i>
   <i type="int" name="NBLK">    -1</i>
   <i type="logical" name="LPLANE"> T  </i>
   <i type="logical" name="LSCALAPACK"> T  </i>
   <i type="logical" name="LSCAAWARE"> F  </i>
   <i type="logical" name="LSCALU"> F  </i>
   <i type="logical" name="LASYNC"> F  </i>
   <i type="logical" name="LORBITALREAL"> F  </i>
  </separator>
  <separator name="miscellaneous" >
   <i type="int" name="IDIOT">     3</i>
   <i type="int" name="ISPECIAL">     0</i>
   <i type="logical" name="LMUSIC"> F  </i>
   <v name="POMASS">      7.01000000     24.30500000    208.98000000     32.06600000     16.00000000</v>
   <v name="DARWINR">      0.00000000      0.00000000      0.00000000      0.00000000      0.00000000</v>
   <v name="DARWINV">      1.00000000      1.00000000      1.00000000      1.00000000      1.00000000</v>
   <i type="logical" name="LCORR"> T  </i>
  </separator>
  <i type="logical" name="GGA_COMPAT"> T  </i>
  <i type="logical" name="LBERRY"> F  </i>
  <i type="int" name="ICORELEVEL">     0</i>
  <i type="logical" name="LDAU"> F  </i>
  <i type="int" name="I_CONSTRAINED_M">     0</i>
  <separator name="electronic exchange-correlation" >
   <i type="string" name="GGA">--</i>
   <i type="int" name="VOSKOWN">     0</i>
   <i type="logical" name="LHFCALC"> F  </i>
   <i type="string" name="PRECFOCK"></i>
   <i type="logical" name="LSYMGRAD"> F  </i>
   <i type="logical" name="LHFONE"> F  </i>
   <i type="logical" name="LRHFCALC"> F  </i>
   <i type="logical" name="LTHOMAS"> F  </i>
   <i type="logical" name="LMODELHF"> F  </i>
   <i name="ENCUT4O">     -1.00000000</i>
   <i type="int" name="EXXOEP">     0</i>
   <i type="int" name="FOURORBIT">     0</i>
   <i name="AEXX">      0.00000000</i>
   <i name="HFALPHA">      0.00000000</i>
   <i name="MCALPHA">      0.00000000</i>
   <i name="ALDAX">      1.00000000</i>
   <i name="AGGAX">      1.00000000</i>
   <i name="ALDAC">      1.00000000</i>
   <i name="AGGAC">      1.00000000</i>
   <i type="int" name="NKREDX">     1</i>
   <i type="int" name="NKREDY">     1</i>
   <i type="int" name="NKREDZ">     1</i>
   <i type="logical" name="SHIFTRED"> F  </i>
   <i type="logical" name="ODDONLY"> F  </i>
   <i type="logical" name="EVENONLY"> F  </i>
   <i type="int" name="LMAXFOCK">     0</i>
   <i type="int" name="NMAXFOCKAE">     0</i>
   <i type="logical" name="LFOCKAEDFT"> F  </i>
   <i name="HFSCREEN">      0.00000000</i>
   <i name="HFSCREENC">      0.00000000</i>
   <i type="int" name="NBANDSGWLOW">     0</i>
  </separator>
  <separator name="vdW DFT" >
   <i type="logical" name="LUSE_VDW"> F  </i>
   <i name="Zab_VDW">     -0.84910000</i>
   <i name="PARAM1">      0.12340000</i>
   <i name="PARAM2">      1.00000000</i>
   <i name="PARAM3">      0.00000000</i>
  </separator>
  <separator name="model GW" >
   <i type="int" name="MODEL_GW">     0</i>
   <i name="MODEL_EPS0">     12.17134107</i>
   <i name="MODEL_ALPHA">      1.00000000</i>
  </separator>
  <separator name="linear response parameters" >
   <i type="logical" name="LEPSILON"> F  </i>
   <i type="logical" name="LRPA"> F  </i>
   <i type="logical" name="LNABLA"> F  </i>
   <i type="logical" name="LVEL"> F  </i>
   <i type="int" name="KINTER">     0</i>
   <i name="CSHIFT">      0.10000000</i>
   <i name="OMEGAMAX">     -1.00000000</i>
   <i name="DEG_THRESHOLD">      0.00200000</i>
   <i name="RTIME">     -0.10000000</i>
   <i name="WPLASMAI">      0.00000000</i>
   <v name="DFIELD">      0.00000000      0.00000000      0.00000000</v>
   <v name="WPLASMA">      0.00000000      0.00000000      0.00000000      0.00000000      0.00000000      0.00000000      0.00000000      0.00000000      0.00000000</v>
  </separator>
  <separator name="orbital magnetization" >
   <i type="logical" name="NUCIND"> F  </i>
   <v name="MAGPOS">      0.00000000      0.00000000      0.00000000</v>
   <i type="logical" name="LNICSALL"> T  </i>
   <i type="logical" name="ORBITALMAG"> F  </i>
   <i type="logical" name="LMAGBLOCH"> F  </i>
   <i type="logical" name="LCHIMAG"> F  </i>
   <i type="logical" name="LGAUGE"> T  </i>
   <i type="int" name="MAGATOM">     0</i>
   <v name="MAGDIPOL">      0.00000000      0.00000000      0.00000000</v>
   <v name="AVECCONST">      0.00000000      0.00000000      0.00000000</v>
  </separator>
  <separator name="response functions" >
   <i type="logical" name="LADDER"> F  </i>
   <i type="logical" name="LRPAFORCE"> F  </i>
   <i type="logical" name="LFXC"> F  </i>
   <i type="logical" name="LHARTREE"> T  </i>
   <i type="int" name="IBSE">     0</i>
   <v type="int" name="KPOINT">    -1     0     0     0</v>
   <i type="logical" name="LTCTE"> F  </i>
   <i type="logical" name="LTETE"> F  </i>
   <i type="logical" name="LTRIPLET"> F  </i>
   <i type="logical" name="LFXCEPS"> F  </i>
   <i type="logical" name="LFXHEG"> F  </i>
   <i type="int" name="NATURALO">     2</i>
   <i type="logical" name="L2ORDER"> F  </i>
   <i type="logical" name="LMP2LT"> F  </i>
   <i type="logical" name="LUSEW"> F  </i>
   <i name="ENCUTGW">     -2.00000000</i>
   <i name="ENCUTGWSOFT">     -2.00000000</i>
   <i name="ENCUTLF">     -1.00000000</i>
   <i type="int" name="LMAXMP2">    -1</i>
   <i name="SCISSOR">      0.00000000</i>
   <i type="int" name="NOMEGA">     0</i>
   <i type="int" name="NOMEGAR">     0</i>
   <i type="int" name="NBANDSGW">    -1</i>
   <i type="int" name="NBANDSO">    -1</i>
   <i type="int" name="NBANDSV">    -1</i>
   <i type="int" name="NELM">     1</i>
   <i type="int" name="NELMHF">     1</i>
   <i type="int" name="DIM">     3</i>
   <i type="int" name="ANTIRES">     0</i>
   <i name="OMEGAMAX">    -30.00000000</i>
   <i name="OMEGAMIN">    -30.00000000</i>
   <i name="OMEGATL">   -200.00000000</i>
   <i type="int" name="OMEGAGRID">   140</i>
   <i name="CSHIFT">     -0.10000000</i>
   <i type="logical" name="SELFENERGY"> F  </i>
   <i type="logical" name="LSPECTRAL"> F  </i>
   <i type="logical" name="LSPECTRALGW"> F  </i>
   <i type="logical" name="LSINGLES"> F  </i>
   <i type="logical" name="LFERMIGW"> F  </i>
   <i type="logical" name="ODDONLYGW"> F  </i>
   <i type="logical" name="EVENONLYGW"> F  </i>
   <i type="int" name="NKREDLFX">     1</i>
   <i type="int" name="NKREDLFY">     1</i>
   <i type="int" name="NKREDLFZ">     1</i>
   <i type="int" name="MAXMEM">  2800</i>
   <i type="int" name="TELESCOPE">     0</i>
   <i type="int" name="TAUPAR">     1</i>
   <i type="int" name="OMEGAPAR">    -1</i>
   <i name="LAMBDA">      1.00000000</i>
  </separator>
  <separator name="External order field" >
   <i name="OFIELD_KAPPA">      0.00000000</i>
   <v name="OFIELD_K">      0.00000000      0.00000000      0.00000000</v>
   <i name="OFIELD_Q6_NEAR">      0.00000000</i>
   <i name="OFIELD_Q6_FAR">      0.00000000</i>
   <i name="OFIELD_A">      0.00000000</i>
  </separator>
 </parameters>
 <atominfo>
  <atoms>      59 </atoms>
  <types>       5 </types>
  <array name="atoms" >
   <dimension dim="1">ion</dimension>
   <field type="string">element</field>
   <field type="int">atomtype</field>
   <set>
    <rc><c>Li</c><c>   1</c></rc>
    <rc><c>Li</c><c>   1</c></rc>
    <rc><c>Li</c><c>   1</c></rc>
    <rc><c>Li</c><c>   1</c></rc>
    <rc><c>Li</c><c>   1</c></rc>
    <rc><c>Li</c><c>   1</c></rc>
    <rc><c>Mg</c><c>   2</c></rc>
    <rc><c>Mg</c><c>   2</c></rc>
    <rc><c>Mg</c><c>   2</c></rc>
    <rc><c>Mg</c><c>   2</c></rc>
    <rc><c>Mg</c><c>   2</c></rc>
    <rc><c>Bi</c><c>   3</c></rc>
    <rc><c>Bi</c><c>   3</c></rc>
    <rc><c>Bi</c><c>   3</c></rc>
    <rc><c>Bi</c><c>   3</c></rc>
    <rc><c>Bi</c><c>   3</c></rc>
    <rc><c>Bi</c><c>   3</c></rc>
    <rc><c>Bi</c><c>   3</c></rc>
    <rc><c>Bi</c><c>   3</c></rc>
    <rc><c>Bi</c><c>   3</c></rc>
    <rc><c>Bi</c><c>   3</c></rc>
    <rc><c>Bi</c><c>   3</c></rc>
    <rc><c>Bi</c><c>   3</c></rc>
    <rc><c>Bi</c><c>   3</c></rc>
    <rc><c>Bi</c><c>   3</c></rc>
    <rc><c>Bi</c><c>   3</c></rc>
    <rc><c>Bi</c><c>   3</c></rc>
    <rc><c>S </c><c>   4</c></rc>
    <rc><c>S </c><c>   4</c></rc>
    <rc><c>S </c><c>   4</c></rc>
    <rc><c>S </c><c>   4</c></rc>
    <rc><c>S </c><c>   4</c></rc>
    <rc><c>S </c><c>   4</c></rc>
    <rc><c>S </c><c>   4</c></rc>
    <rc><c>S </c><c>   4</c></rc>
    <rc><c>S </c><c>   4</c></rc>
    <rc><c>S </c><c>   4</c></rc>
    <rc><c>S </c><c>   4</c></rc>
    <rc><c>S </c><c>   4</c></rc>
    <rc><c>S </c><c>   4</c></rc>
    <rc><c>S </c><c>   4</c></rc>
    <rc><c>S </c><c>   4</c></rc>
    <rc><c>S </c><c>   4</c></rc>
    <rc><c>O </c><c>   5</c></rc>
    <rc><c>O </c><c>   5</c></rc>
    <rc><c>O </c><c>   5</c></rc>
    <rc><c>O </c><c>   5</c></rc>
    <rc><c>O </c><c>   5</c></rc>
    <rc><c>O </c><c>   5</c></rc>
    <rc><c>O </c><c>   5</c></rc>
    <rc><c>O </c><c>   5</c></rc>
    <rc><c>O </c><c>   5</c></rc>
    <rc><c>O </c><c>   5</c></rc>
    <rc><c>O </c><c>   5</c></rc>
    <rc><c>O </c><c>   5</c></rc>
    <rc><c>O </c><c>   5</c></rc>
    <rc><c>O </c><c>   5</c></rc>
    <rc><c>O </c><c>   5</c></rc>
    <rc><c>O </c><c>   5</c></rc>
   </set>
  </array>
  <array name="atomtypes" >
   <dimension dim="1">type</dimension>
   <field type="int">atomspertype</field>
   <field type="string">element</field>
   <field>mass</field>
   <field>valence</field>
   <field type="string">pseudopotential</field>
   <set>
    <rc><c>   6</c><c>Li</c><c>      7.01000000</c><c>      3.00000000</c><c>  PAW_PBE Li_sv 10Sep2004               </c></rc>
    <rc><c>   5</c><c>Mg</c><c>     24.30500000</c><c>      2.00000000</c><c>  PAW_PBE Mg 13Apr2007                  </c></rc>
    <rc><c>  16</c><c>Bi</c><c>    208.98000000</c><c>     15.00000000</c><c>  PAW_PBE Bi_d 06Sep2000                </c></rc>
    <rc><c>  16</c><c>S </c><c>     32.06600000</c><c>      6.00000000</c><c>  PAW_PBE S 06Sep2000                   </c></rc>
    <rc><c>  16</c><c>O </c><c>     16.00000000</c><c>      6.00000000</c><c>  PAW_PBE O 08Apr2002                   </c></rc>
   </set>
  </array>
 </atominfo>
 <structure name="initialpos" >
  <crystal>
   <varray name="basis" >
    <v>      11.17850000       0.00000000       0.00000000 </v>
    <v>       0.00000000       9.57460000       0.00000000 </v>
    <v>       0.00000000       0.00000000      11.18240000 </v>
   </varray>
   <i name="volume">   1196.84853820 </i>
   <varray name="rec_basis" >
    <v>       0.08945744       0.00000000       0.00000000 </v>
    <v>       0.00000000       0.10444301       0.00000000 </v>
    <v>       0.00000000       0.00000000       0.08942624 </v>
   </varray>
  </crystal>
  <varray name="positions" >
   <v>       0.37461000       0.00017000       0.18687000 </v>
   <v>       0.62461000       0.99984000       0.18687000 </v>
   <v>       0.12539000       0.99984000       0.93687000 </v>
   <v>       0.12461000       0.99984000       0.68687000 </v>
   <v>       0.37461000       0.00017000       0.68687000 </v>
   <v>       0.87539000       0.00017000       0.93687000 </v>
   <v>       0.62539000       0.99984000       0.43687000 </v>
   <v>       0.87539000       0.00017000       0.43687000 </v>
   <v>       0.87461000       0.00017000       0.18687000 </v>
   <v>       0.62539000       0.99984000       0.93687000 </v>
   <v>       0.62461000       0.99984000       0.68687000 </v>
   <v>       0.00013000       0.29519000       0.06281000 </v>
   <v>       0.25013000       0.70481000       0.06281000 </v>
   <v>       0.24987000       0.29519000       0.31282000 </v>
   <v>       0.49987000       0.70481000       0.31282000 </v>
   <v>       0.50013000       0.29519000       0.06281000 </v>
   <v>       0.75013000       0.70481000       0.06281000 </v>
   <v>       0.74987000       0.29519000       0.31282000 </v>
   <v>       0.99987000       0.70481000       0.31282000 </v>
   <v>       0.00013000       0.29519000       0.56281000 </v>
   <v>       0.25013000       0.70481000       0.56281000 </v>
   <v>       0.24987000       0.29519000       0.81282000 </v>
   <v>       0.49987000       0.70481000       0.81282000 </v>
   <v>       0.50013000       0.29519000       0.56281000 </v>
   <v>       0.75013000       0.70481000       0.56281000 </v>
   <v>       0.74987000       0.29519000       0.81282000 </v>
   <v>       0.99987000       0.70481000       0.81282000 </v>
   <v>       0.25005000       0.32677000       0.06286000 </v>
   <v>       0.00005000       0.67323000       0.06286000 </v>
   <v>       0.49995000       0.32677000       0.31286000 </v>
   <v>       0.24995000       0.67323000       0.31286000 </v>
   <v>       0.75005000       0.32677000       0.06286000 </v>
   <v>       0.50005000       0.67323000       0.06286000 </v>
   <v>       0.99995000       0.32677000       0.31286000 </v>
   <v>       0.74995000       0.67323000       0.31286000 </v>
   <v>       0.25005000       0.32677000       0.56286000 </v>
   <v>       0.00005000       0.67323000       0.56286000 </v>
   <v>       0.49995000       0.32677000       0.81286000 </v>
   <v>       0.24995000       0.67323000       0.81286000 </v>
   <v>       0.75005000       0.32677000       0.56286000 </v>
   <v>       0.50005000       0.67323000       0.56286000 </v>
   <v>       0.99995000       0.32677000       0.81286000 </v>
   <v>       0.74995000       0.67323000       0.81286000 </v>
   <v>       0.49987000       0.07798000       0.06246000 </v>
   <v>       0.24987000       0.92202000       0.06246000 </v>
   <v>       0.25013000       0.07798000       0.31246000 </v>
   <v>       0.00013000       0.92202000       0.31246000 </v>
   <v>       0.99987000       0.07798000       0.06246000 </v>
   <v>       0.74987000       0.92202000       0.06246000 </v>
   <v>       0.75013000       0.07798000       0.31246000 </v>
   <v>       0.50013000       0.92202000       0.31246000 </v>
   <v>       0.49987000       0.07798000       0.56246000 </v>
   <v>       0.24987000       0.92202000       0.56246000 </v>
   <v>       0.25013000       0.07798000       0.81246000 </v>
   <v>       0.00013000       0.92202000       0.81246000 </v>
   <v>       0.99987000       0.07798000       0.56246000 </v>
   <v>       0.74987000       0.92202000       0.56246000 </v>
   <v>       0.75013000       0.07798000       0.81246000 </v>
   <v>       0.50013000       0.92202000       0.81246000 </v>
  </varray>
 </structure>
 <calculation>
  <scstep>
   <time name="dav">   59.58   60.81</time>
   <time name="total">   59.70   61.01</time>
   <energy>
    <i name="alphaZ">   1060.66890660 </i>
    <i name="ewald"> -30417.57747749 </i>
    <i name="hartreedc"> -12699.78295296 </i>
    <i name="XCdc">   1247.33337466 </i>
    <i name="pawpsdc">  36635.26894311 </i>
    <i name="pawaedc"> -35972.74895369 </i>
    <i name="eentropy">      0.00000000 </i>
    <i name="bandstr">   1868.19856830 </i>
    <i name="atom">  44026.03258983 </i>
    <i name="e_fr_energy">   5747.39299835 </i>
    <i name="e_wo_entrp">   5747.39299835 </i>
    <i name="e_0_energy">   5747.39299835 </i>
   </energy>
  </scstep>
  <scstep>
   <time name="dav">   60.58   61.41</time>
   <time name="total">   60.59   61.42</time>
   <energy>
    <i name="e_fr_energy">    764.27942748 </i>
    <i name="e_wo_entrp">    764.27942748 </i>
    <i name="e_0_energy">    764.27942748 </i>
   </energy>
  </scstep>
  <scstep>
   <time name="dav">   69.36   69.88</time>
   <time name="total">   69.37   69.89</time>
   <energy>
    <i name="e_fr_energy">   -240.23671742 </i>
    <i name="e_wo_entrp">   -240.23671742 </i>
    <i name="e_0_energy">   -240.23671742 </i>
   </energy>
  </scstep>
  <scstep>
   <time name="dav">   72.67   73.12</time>
   <time name="total">   72.68   73.12</time>
   <energy>
    <i name="e_fr_energy">   -334.34560812 </i>
    <i name="e_wo_entrp">   -334.34560812 </i>
    <i name="e_0_energy">   -334.34560812 </i>
   </energy>
  </scstep>
  <scstep>
   <time name="dav">   94.58   95.51</time>
   <time name="total">   95.30   96.27</time>
   <energy>
    <i name="e_fr_energy">   -341.49058811 </i>
    <i name="e_wo_entrp">   -341.49058811 </i>
    <i name="e_0_energy">   -341.49058811 </i>
   </energy>
  </scstep>
  <scstep>
   <time name="dav">   84.34   84.95</time>
   <time name="total">   85.13   85.75</time>
   <energy>
    <i name="e_fr_energy">   -285.08649952 </i>
    <i name="e_wo_entrp">   -285.08649952 </i>
    <i name="e_0_energy">   -285.08649952 </i>
   </energy>
  </scstep>
  <scstep>
   <time name="dav">   64.88   65.39</time>
   <time name="total">   65.66   66.17</time>
   <energy>
    <i name="e_fr_energy">   -287.06006335 </i>
    <i name="e_wo_entrp">   -287.06006335 </i>
    <i name="e_0_energy">   -287.06006335 </i>
   </energy>
  </scstep>
  <scstep>
   <time name="dav">   79.52   80.14</time>
   <time name="total">   80.29   80.93</time>
   <energy>
    <i name="e_fr_energy">   -285.69988670 </i>
    <i name="e_wo_entrp">   -285.69988670 </i>
    <i name="e_0_energy">   -285.69988670 </i>
   </energy>
  </scstep>
  <scstep>
   <time name="dav">   68.75   70.25</time>
   <time name="total">   69.53   71.03</time>
   <energy>
    <i name="e_fr_energy">   -284.94579209 </i>
    <i name="e_wo_entrp">   -284.94579209 </i>
    <i name="e_0_energy">   -284.94579209 </i>
   </energy>
  </scstep>
  <scstep>
   <time name="dav">   78.19   79.69</time>
   <time name="total">   78.97   80.47</time>
   <energy>
    <i name="e_fr_energy">   -284.94672880 </i>
    <i name="e_wo_entrp">   -284.94672880 </i>
    <i name="e_0_energy">   -284.94672880 </i>
   </energy>
  </scstep>
  <scstep>
   <time name="dav">   67.72   69.78</time>
   <time name="total">   68.51   70.57</time>
   <energy>
    <i name="e_fr_energy">   -284.92594093 </i>
    <i name="e_wo_entrp">   -284.92594093 </i>
    <i name="e_0_energy">   -284.92594093 </i>
   </energy>
  </scstep>
  <scstep>
   <time name="dav">   72.37   73.45</time>
   <time name="total">   73.16   74.23</time>
   <energy>
    <i name="e_fr_energy">   -284.92677207 </i>
    <i name="e_wo_entrp">   -284.92677207 </i>
    <i name="e_0_energy">   -284.92677207 </i>
   </energy>
  </scstep>
  <scstep>
   <time name="dav">   81.46   81.60</time>
   <time name="total">   82.26   82.40</time>
   <energy>
    <i name="e_fr_energy">   -284.92921746 </i>
    <i name="e_wo_entrp">   -284.92921746 </i>
    <i name="e_0_energy">   -284.92921746 </i>
   </energy>
  </scstep>
  <scstep>
   <time name="dav">   80.17   80.32</time>
   <time name="total">   80.95   81.11</time>
   <energy>
    <i name="e_fr_energy">   -284.92971972 </i>
    <i name="e_wo_entrp">   -284.92971972 </i>
    <i name="e_0_energy">   -284.92971972 </i>
   </energy>
  </scstep>
  <scstep>
   <time name="dav">   73.77   73.93</time>
   <time name="total">   74.56   74.72</time>
   <energy>
    <i name="e_fr_energy">   -284.92974054 </i>
    <i name="e_wo_entrp">   -284.92974054 </i>
    <i name="e_0_energy">   -284.92974054 </i>
   </energy>
  </scstep>
  <scstep>
   <time name="dav">   70.03   70.12</time>
   <time name="total">   70.81   70.91</time>
   <energy>
    <i name="e_fr_energy">   -284.92981184 </i>
    <i name="e_wo_entrp">   -284.92981184 </i>
    <i name="e_0_energy">   -284.92981184 </i>
   </energy>
  </scstep>
  <scstep>
   <time name="dav">   78.47   78.62</time>
   <time name="total">   79.25   79.41</time>
   <energy>
    <i name="e_fr_energy">   -284.92980389 </i>
    <i name="e_wo_entrp">   -284.92980389 </i>
    <i name="e_0_energy">   -284.92980389 </i>
   </energy>
  </scstep>
  <scstep>
   <time name="dav">   66.29   66.40</time>
   <time name="total">   67.08   67.19</time>
   <energy>
    <i name="e_fr_energy">   -284.92980859 </i>
    <i name="e_wo_entrp">   -284.92980859 </i>
    <i name="e_0_energy">   -284.92980859 </i>
   </energy>
  </scstep>
  <scstep>
   <time name="dav">   69.60   69.73</time>
   <time name="total">   70.39   70.52</time>
   <energy>
    <i name="e_fr_energy">   -284.92981064 </i>
    <i name="e_wo_entrp">   -284.92981064 </i>
    <i name="e_0_energy">   -284.92981064 </i>
   </energy>
  </scstep>
  <scstep>
   <time name="dav">   53.31   53.46</time>
   <time name="total">   54.12   54.27</time>
   <energy>
    <i name="e_fr_energy">   -284.92981190 </i>
    <i name="e_wo_entrp">   -284.92981190 </i>
    <i name="e_0_energy">   -284.92981190 </i>
   </energy>
  </scstep>
  <scstep>
   <time name="dav">   46.93   47.01</time>
   <time name="total">   47.00   47.09</time>
   <energy>
    <i name="alphaZ">   1060.66890660 </i>
    <i name="ewald"> -30417.57747749 </i>
    <i name="hartreedc"> -12927.26586395 </i>
    <i name="XCdc">   1271.35972524 </i>
    <i name="pawpsdc">  43662.52996236 </i>
    <i name="pawaedc"> -42974.31170237 </i>
    <i name="eentropy">      0.00000000 </i>
    <i name="bandstr">  -3986.36595255 </i>
    <i name="atom">  44026.03258983 </i>
    <i name="e_fr_energy">   -284.92981233 </i>
    <i name="e_wo_entrp">   -284.92981233 </i>
    <i name="e_0_energy">   -284.92981233 </i>
   </energy>
  </scstep>
  <structure>
   <crystal>
    <varray name="basis" >
     <v>      11.17850000       0.00000000       0.00000000 </v>
     <v>       0.00000000       9.57460000       0.00000000 </v>
     <v>       0.00000000       0.00000000      11.18240000 </v>
    </varray>
    <i name="volume">   1196.84853820 </i>
    <varray name="rec_basis" >
     <v>       0.08945744       0.00000000       0.00000000 </v>
     <v>       0.00000000       0.10444301       0.00000000 </v>
     <v>       0.00000000       0.00000000       0.08942624 </v>
    </varray>
   </crystal>
   <varray name="positions" >
    <v>       0.37461000       0.00017000       0.18687000 </v>
    <v>       0.62461000       0.99984000       0.18687000 </v>
    <v>       0.12539000       0.99984000       0.93687000 </v>
    <v>       0.12461000       0.99984000       0.68687000 </v>
    <v>       0.37461000       0.00017000       0.68687000 </v>
    <v>       0.87539000       0.00017000       0.93687000 </v>
    <v>       0.62539000       0.99984000       0.43687000 </v>
    <v>       0.87539000       0.00017000       0.43687000 </v>
    <v>       0.87461000       0.00017000       0.18687000 </v>
    <v>       0.62539000       0.99984000       0.93687000 </v>
    <v>       0.62461000       0.99984000       0.68687000 </v>
    <v>       0.00013000       0.29519000       0.06281000 </v>
    <v>       0.25013000       0.70481000       0.06281000 </v>
    <v>       0.24987000       0.29519000       0.31282000 </v>
    <v>       0.49987000       0.70481000       0.31282000 </v>
    <v>       0.50013000       0.29519000       0.06281000 </v>
    <v>       0.75013000       0.70481000       0.06281000 </v>
    <v>       0.74987000       0.29519000       0.31282000 </v>
    <v>       0.99987000       0.70481000       0.31282000 </v>
    <v>       0.00013000       0.29519000       0.56281000 </v>
    <v>       0.25013000       0.70481000       0.56281000 </v>
    <v>       0.24987000       0.29519000       0.81282000 </v>
    <v>       0.49987000       0.70481000       0.81282000 </v>
    <v>       0.50013000       0.29519000       0.56281000 </v>
    <v>       0.75013000       0.70481000       0.56281000 </v>
    <v>       0.74987000       0.29519000       0.81282000 </v>
    <v>       0.99987000       0.70481000       0.81282000 </v>
    <v>       0.25005000       0.32677000       0.06286000 </v>
    <v>       0.00005000       0.67323000       0.06286000 </v>
    <v>       0.49995000       0.32677000       0.31286000 </v>
    <v>       0.24995000       0.67323000       0.31286000 </v>
    <v>       0.75005000       0.32677000       0.06286000 </v>
    <v>       0.50005000       0.67323000       0.06286000 </v>
    <v>       0.99995000       0.32677000       0.31286000 </v>
    <v>       0.74995000       0.67323000       0.31286000 </v>
    <v>       0.25005000       0.32677000       0.56286000 </v>
    <v>       0.00005000       0.67323000       0.56286000 </v>
    <v>       0.49995000       0.32677000       0.81286000 </v>
    <v>       0.24995000       0.67323000       0.81286000 </v>
    <v>       0.75005000       0.32677000       0.56286000 </v>
    <v>       0.50005000       0.67323000       0.56286000 </v>
    <v>       0.99995000       0.32677000       0.81286000 </v>
    <v>       0.74995000       0.67323000       0.81286000 </v>
    <v>       0.49987000       0.07798000       0.06246000 </v>
    <v>       0.24987000       0.92202000       0.06246000 </v>
    <v>       0.25013000       0.07798000       0.31246000 </v>
    <v>       0.00013000       0.92202000       0.31246000 </v>
    <v>       0.99987000       0.07798000       0.06246000 </v>
    <v>       0.74987000       0.92202000       0.06246000 </v>
    <v>       0.75013000       0.07798000       0.31246000 </v>
    <v>       0.50013000       0.92202000       0.31246000 </v>
    <v>       0.49987000       0.07798000       0.56246000 </v>
    <v>       0.24987000       0.92202000       0.56246000 </v>
    <v>       0.25013000       0.07798000       0.81246000 </v>
    <v>       0.00013000       0.92202000       0.81246000 </v>
    <v>       0.99987000       0.07798000       0.56246000 </v>
    <v>       0.74987000       0.92202000       0.56246000 </v>
    <v>       0.75013000       0.07798000       0.81246000 </v>
    <v>       0.50013000       0.92202000       0.81246000 </v>
   </varray>
  </structure>
  <varray name="forces" >
   <v>      -0.91828842       0.03238059       0.11005058 </v>
   <v>      -1.00740863      -0.05540119      -0.09797995 </v>
   <v>       0.49785828      -0.11555866       0.22478791 </v>
   <v>       0.02239382      -0.05280820      -0.36903570 </v>
   <v>      -0.97921381      -0.04696736      -0.11722025 </v>
   <v>       0.89638973      -0.00220327      -0.73659578 </v>
   <v>      -2.15742983      -0.21365360      -0.53712344 </v>
   <v>       2.68915876       0.02200373       1.62052629 </v>
   <v>       1.92178425      -0.09254499      -0.77168210 </v>
   <v>      -1.16284350       0.24241066       0.59615245 </v>
   <v>       0.22406096       0.11887150       0.25023154 </v>
   <v>       0.91966199       0.09063771      -0.03604656 </v>
   <v>      -0.12563226       1.88380572       0.04633911 </v>
   <v>      -0.18938811      -2.57955470       0.10214790 </v>
   <v>      -1.07335030      -0.18162762      -0.02385824 </v>
   <v>      -0.97405540       0.12121634       0.01863875 </v>
   <v>       0.16115015      -2.17452153      -0.11313743 </v>
   <v>       0.05412718       3.13588660      -0.11418396 </v>
   <v>       1.24039187      -0.20503067       0.02734578 </v>
   <v>       0.76528729      -0.96221271       0.14287464 </v>
   <v>      -0.20932430       1.86539309      -0.27793708 </v>
   <v>      -0.10906841      -0.97451168       0.11554014 </v>
   <v>      -1.03707125      -1.12855743       0.20262164 </v>
   <v>      -1.13304034       1.19052723      -0.21350729 </v>
   <v>       0.52067187      -2.14723204       0.32392664 </v>
   <v>       0.60204520       1.20668144      -0.10570298 </v>
   <v>       0.53342220       0.98085877      -0.15562694 </v>
   <v>       0.10335189       0.26225128      -0.22564191 </v>
   <v>      -0.72274245      -0.13185062       0.15885852 </v>
   <v>       0.79102190       0.03891295       0.12359155 </v>
   <v>       0.13517953      -0.23477629      -0.00041410 </v>
   <v>      -0.04738551      -0.05908463       0.09392758 </v>
   <v>       0.65902089      -0.05498260      -0.10730627 </v>
   <v>      -0.89081409       0.00693157      -0.10664966 </v>
   <v>      -0.01662479       0.13095152       0.04869351 </v>
   <v>       0.30834906       0.25426910       0.22499411 </v>
   <v>      -0.70602306      -0.12888181      -0.17591999 </v>
   <v>       0.52119845       0.01688562      -0.09563807 </v>
   <v>       0.28242223      -0.32034274      -0.00748688 </v>
   <v>      -0.26994400      -0.14586646      -0.15833714 </v>
   <v>       0.68075185       0.01027151       0.07933183 </v>
   <v>      -0.47781721       0.22031244       0.12076232 </v>
   <v>      -0.30545765       0.08469737       0.02474825 </v>
   <v>       1.69812892      -0.20090201       0.01224248 </v>
   <v>       0.06336979      -1.72013757      -0.06106766 </v>
   <v>       0.58308774       2.23598300      -0.48287938 </v>
   <v>      -2.71405681       0.38923585      -0.09260404 </v>
   <v>      -1.67839409      -0.07988811       0.02430401 </v>
   <v>      -0.08346180       1.75089212       0.15899098 </v>
   <v>       0.29120325      -2.46014127       0.42991363 </v>
   <v>       1.80185568       0.25584998       0.00602113 </v>
   <v>       2.07588358      -1.07271719       0.58444400 </v>
   <v>       0.19967874      -1.60640999       1.15164483 </v>
   <v>      -0.41529863       0.94194864      -0.58237773 </v>
   <v>       0.15954054      -0.84506726       0.70636889 </v>
   <v>      -1.02814075       0.86303550      -0.65561474 </v>
   <v>      -1.20518367       1.80101847      -1.25058343 </v>
   <v>      -1.69391380      -1.13954051       0.59103049 </v>
   <v>       1.92892527       0.97885442      -0.64889278 </v>
  </varray>
  <varray name="stress" >
   <v>      -7.16210352      -0.47573225      -1.16249494 </v>
   <v>      -0.47573213     -11.18094688      -0.81287991 </v>
   <v>      -1.16249500      -0.81288008       4.29856749 </v>
  </varray>
  <energy>
   <i name="e_fr_energy">   -297.50973469 </i>
   <i name="e_wo_entrp">   -297.50973469 </i>
   <i name="e_0_energy">      0.00000000 </i>
  </energy>
  <time name="totalsc"> 1623.85 1637.86</time>
 </calculation>
 <calculation>
  <scstep>
   <time name="dav">   65.31   65.45</time>
   <time name="total">   66.13   66.27</time>
   <energy>
    <i name="alphaZ">   1069.84694908 </i>
    <i name="ewald"> -30484.12165893 </i>
    <i name="hartreedc"> -12966.21425645 </i>
    <i name="XCdc">   1276.55960995 </i>
    <i name="pawpsdc">  43662.60852358 </i>
    <i name="pawaedc"> -42974.39123104 </i>
    <i name="eentropy">      0.00000000 </i>
    <i name="bandstr">  -3893.57317668 </i>
    <i name="atom">  44026.03258983 </i>
    <i name="e_fr_energy">   -283.25265066 </i>
    <i name="e_wo_entrp">   -283.25265066 </i>
    <i name="e_0_energy">   -283.25265066 </i>
   </energy>
  </scstep>
  <scstep>
   <time name="dav">   69.16   69.39</time>
   <time name="total">   69.96   70.19</time>
   <energy>
    <i name="e_fr_energy">   -288.33673128 </i>
    <i name="e_wo_entrp">   -288.33673128 </i>
    <i name="e_0_energy">   -288.33673128 </i>
   </energy>
  </scstep>
  <scstep>
   <time name="dav">   86.48   86.67</time>
   <time name="total">   87.27   87.47</time>
   <energy>
    <i name="e_fr_energy">   -288.10159049 </i>
    <i name="e_wo_entrp">   -288.10159049 </i>
    <i name="e_0_energy">   -288.10159049 </i>
   </energy>
  </scstep>
  <scstep>
   <time name="dav">   77.03   77.20</time>
   <time name="total">   77.84   78.01</time>
   <energy>
    <i name="e_fr_energy">   -287.92706334 </i>
    <i name="e_wo_entrp">   -287.92706334 </i>
    <i name="e_0_energy">   -287.92706334 </i>
   </energy>
  </scstep>
  <scstep>
   <time name="dav">   77.54   77.81</time>
   <time name="total">   78.32   78.59</time>
   <energy>
    <i name="e_fr_energy">   -287.87974091 </i>
    <i name="e_wo_entrp">   -287.87974091 </i>
    <i name="e_0_energy">   -287.87974091 </i>
   </energy>
  </scstep>
  <scstep>
   <time name="dav">   81.67   82.27</time>
   <time name="total">   82.49   83.09</time>
   <energy>
    <i name="e_fr_energy">   -287.87694606 </i>
    <i name="e_wo_entrp">   -287.87694606 </i>
    <i name="e_0_energy">   -287.87694606 </i>
   </energy>
  </scstep>
  <scstep>
   <time name="dav">   80.52   80.79</time>
   <time name="total">   81.31   81.58</time>
   <energy>
    <i name="e_fr_energy">   -287.87602505 </i>
    <i name="e_wo_entrp">   -287.87602505 </i>
    <i name="e_0_energy">   -287.87602505 </i>
   </energy>
  </scstep>
  <scstep>
   <time name="dav">   69.99   71.61</time>
   <time name="total">   70.75   72.41</time>
   <energy>
    <i name="e_fr_energy">   -287.87498807 </i>
    <i name="e_wo_entrp">   -287.87498807 </i>
    <i name="e_0_energy">   -287.87498807 </i>
   </energy>
  </scstep>
  <scstep>
   <time name="dav">   87.56   87.91</time>
   <time name="total">   88.35   88.70</time>
   <energy>
    <i name="e_fr_energy">   -287.87497865 </i>
    <i name="e_wo_entrp">   -287.87497865 </i>
    <i name="e_0_energy">   -287.87497865 </i>
   </energy>
  </scstep>
  <scstep>
   <time name="dav">   66.62   67.17</time>
   <time name="total">   67.41   67.97</time>
   <energy>
    <i name="e_fr_energy">   -287.87500008 </i>
    <i name="e_wo_entrp">   -287.87500008 </i>
    <i name="e_0_energy">   -287.87500008 </i>
   </energy>
  </scstep>
  <scstep>
   <time name="dav">   81.78   81.99</time>
   <time name="total">   82.60   82.82</time>
   <energy>
    <i name="e_fr_energy">   -287.87500826 </i>
    <i name="e_wo_entrp">   -287.87500826 </i>
    <i name="e_0_energy">   -287.87500826 </i>
   </energy>
  </scstep>
  <scstep>
   <time name="dav">   74.96   75.41</time>
   <time name="total">   75.74   76.20</time>
   <energy>
    <i name="e_fr_energy">   -287.87500888 </i>
    <i name="e_wo_entrp">   -287.87500888 </i>
    <i name="e_0_energy">   -287.87500888 </i>
   </energy>
  </scstep>
  <scstep>
   <time name="dav">   66.34   66.76</time>
   <time name="total">   66.41   66.84</time>
   <energy>
    <i name="alphaZ">   1069.84694908 </i>
    <i name="ewald"> -30484.12165893 </i>
    <i name="hartreedc"> -12900.59121296 </i>
    <i name="XCdc">   1274.12804862 </i>
    <i name="pawpsdc">  43973.87121303 </i>
    <i name="pawaedc"> -43288.65684588 </i>
    <i name="eentropy">      0.00000000 </i>
    <i name="bandstr">  -3958.38409181 </i>
    <i name="atom">  44026.03258983 </i>
    <i name="e_fr_energy">   -287.87500902 </i>
    <i name="e_wo_entrp">   -287.87500902 </i>
    <i name="e_0_energy">   -287.87500902 </i>
   </energy>
  </scstep>
  <structure>
   <crystal>
    <varray name="basis" >
     <v>      11.12959740      -0.00324828      -0.00793748 </v>
     <v>      -0.00278222       9.50921065      -0.00475395 </v>
     <v>      -0.00794025      -0.00555225      11.21176071 </v>
    </varray>
    <i name="volume">   1186.58096979 </i>
    <varray name="rec_basis" >
     <v>       0.08985056       0.00002632       0.00006365 </v>
     <v>       0.00003073       0.10516123       0.00005210 </v>
     <v>       0.00006362       0.00004461       0.08919212 </v>
    </varray>
   </crystal>
   <varray name="positions" >
    <v>       0.37064698       0.00033315       0.18734478 </v>
    <v>       0.62026236       0.99956086       0.18644730 </v>
    <v>       0.12753859       0.99925775       0.93783977 </v>
    <v>       0.12470664       0.99957392       0.68527792 </v>
    <v>       0.37038404      -0.00006665       0.68636429 </v>
    <v>       0.87925852       0.00015890       0.93369221 </v>
    <v>       0.61607926       0.99876348       0.43455276 </v>
    <v>       0.88699551       0.00028087       0.44386121 </v>
    <v>       0.88290378      -0.00029630       0.18354084 </v>
    <v>       0.62037156       0.00106141       0.93944190 </v>
    <v>       0.62557697       0.00043895       0.68794954 </v>
    <v>       0.00409895       0.29564669       0.06265449 </v>
    <v>       0.24958781       0.71430176       0.06300991 </v>
    <v>       0.24905266       0.28219264       0.31326068 </v>
    <v>       0.49523778       0.70389485       0.31271707 </v>
    <v>       0.49592630       0.29580076       0.06289041 </v>
    <v>       0.75082547       0.69385344       0.06232191 </v>
    <v>       0.75010359       0.31099050       0.31232739 </v>
    <v>       0.00522311       0.70377693       0.31293797 </v>
    <v>       0.00343272       0.29034179       0.56342638 </v>
    <v>       0.24922663       0.71420898       0.56161094 </v>
    <v>       0.24939930       0.29027982       0.81331846 </v>
    <v>       0.49539435       0.69912364       0.81369414 </v>
    <v>       0.49524018       0.30118860       0.56188890 </v>
    <v>       0.75237705       0.69399094       0.56420747 </v>
    <v>       0.75246823       0.30126999       0.81236398 </v>
    <v>       0.00217207       0.70975216       0.81214860 </v>
    <v>       0.25049603       0.32809138       0.06188654 </v>
    <v>      -0.00306911       0.67256566       0.06354534 </v>
    <v>       0.50336379       0.32696607       0.31339319 </v>
    <v>       0.25053339       0.67204705       0.31285821 </v>
    <v>       0.74984550       0.32647230       0.06326522 </v>
    <v>       0.50289411       0.67295296       0.06239706 </v>
    <v>       0.99610555       0.32680493       0.31239990 </v>
    <v>       0.74987825       0.67388981       0.31307007 </v>
    <v>       0.25138073       0.32805116       0.56383066 </v>
    <v>      -0.00299696       0.67258062       0.56210105 </v>
    <v>       0.50219932       0.32685508       0.81244740 </v>
    <v>       0.25116884       0.67161592       0.81282770 </v>
    <v>       0.74888501       0.32603504       0.56217691 </v>
    <v>       0.50298790       0.67328175       0.56320225 </v>
    <v>       0.99788790       0.32788007       0.81338099 </v>
    <v>       0.74863175       0.67365676       0.81296677 </v>
    <v>       0.50719855       0.07696773       0.06251282 </v>
    <v>       0.25014348       0.91335290       0.06219654 </v>
    <v>       0.25264641       0.08924624       0.31037678 </v>
    <v>      -0.01158296       0.92398121       0.31206049 </v>
    <v>       0.99262661       0.07757748       0.06256485 </v>
    <v>       0.74950981       0.93084206       0.06314591 </v>
    <v>       0.75138674       0.06558431       0.31431472 </v>
    <v>       0.50790620       0.92330913       0.31248598 </v>
    <v>       0.50882882       0.07257500       0.56498138 </v>
    <v>       0.25073175       0.91392593       0.56742838 </v>
    <v>       0.24833771       0.08272611       0.80994753 </v>
    <v>       0.00081852       0.91776204       0.81550739 </v>
    <v>       0.99543289       0.08232850       0.55963157 </v>
    <v>       0.74466883       0.93109463       0.55706478 </v>
    <v>       0.74281964       0.07223830       0.81500980 </v>
    <v>       0.50845459       0.92695206       0.80966057 </v>
   </varray>
  </structure>
  <varray name="forces" >
   <v>      -0.59435188       0.02948659       0.12249061 </v>
   <v>      -0.21578914      -0.03558374       0.03703211 </v>
   <v>       0.34780509      -0.06088983       0.20956741 </v>
   <v>      -0.06069616      -0.02314899      -0.28536271 </v>
   <v>      -0.39782915      -0.01736151      -0.08941767 </v>
   <v>       0.24866001       0.01433985      -0.49872444 </v>
   <v>      -0.23498372       0.06294032      -0.21037182 </v>
   <v>       0.09192260      -0.19753273       0.44512036 </v>
   <v>       0.07623366      -0.07580024      -0.03532961 </v>
   <v>      -0.29993256       0.02329859       0.33791887 </v>
   <v>       0.66720233       0.01212169      -0.08696670 </v>
   <v>       0.31191646       0.19410237       0.04713363 </v>
   <v>      -0.05467086      -2.51219141      -0.01643182 </v>
   <v>      -0.23446814       3.76658012       0.18769821 </v>
   <v>      -0.30135676      -0.01459839       0.03945415 </v>
   <v>      -0.34444221       0.03916828      -0.04550035 </v>
   <v>       0.05747572       0.12803811       0.03512946 </v>
   <v>       0.06635512      -0.08148517      -0.02663083 </v>
   <v>       0.41770247       0.16443258      -0.05083839 </v>
   <v>       0.27956869       1.08513884       0.06305696 </v>
   <v>      -0.01536192      -2.29171676      -0.25472430 </v>
   <v>       0.07364756       1.18283757       0.09420613 </v>
   <v>      -0.42061071       0.16929562       0.06166055 </v>
   <v>      -0.40821577      -0.19143656      -0.08035433 </v>
   <v>       0.10796473       0.23933294       0.02060426 </v>
   <v>       0.19528351      -0.29294390      -0.04780038 </v>
   <v>       0.13085205      -1.00670498      -0.06568694 </v>
   <v>       0.05510293       0.12189887      -0.15383733 </v>
   <v>      -0.34866757      -0.13595961       0.12102284 </v>
   <v>       0.33430513       0.11184299       0.07183880 </v>
   <v>       0.09021493      -0.07853124      -0.01959576 </v>
   <v>      -0.00492016       0.24245298      -0.00220832 </v>
   <v>       0.27755132      -0.09158166      -0.06306645 </v>
   <v>      -0.45415148       0.09496629      -0.05253262 </v>
   <v>       0.00457913      -0.33606666       0.02044221 </v>
   <v>       0.17443695       0.13496905       0.18616190 </v>
   <v>      -0.32212489      -0.03856942      -0.14052444 </v>
   <v>       0.21940378       0.15350195      -0.03557829 </v>
   <v>       0.15450109      -0.22716164      -0.02495708 </v>
   <v>      -0.06166005       0.18569310      -0.03373015 </v>
   <v>       0.27068203      -0.14674058       0.02280308 </v>
   <v>      -0.20316944       0.12614953       0.08207686 </v>
   <v>      -0.10424025      -0.12364117       0.01594074 </v>
   <v>       0.60144822       0.16040846       0.33250693 </v>
   <v>       0.02197154       2.69569615      -0.04876692 </v>
   <v>       0.62990656      -4.19600984      -0.57742238 </v>
   <v>      -1.07581584      -0.50094851       0.02209746 </v>
   <v>      -0.52864337       0.11959976      -0.50023196 </v>
   <v>       0.03037311      -0.61794646      -0.01872929 </v>
   <v>       0.34292482       0.74558599       0.25624974 </v>
   <v>       0.42206788      -0.32834378      -0.53892552 </v>
   <v>       0.65857765       0.66631780       0.45630857 </v>
   <v>       0.03266516       2.54771075       1.10638307 </v>
   <v>      -0.49425915      -1.23709668      -0.51699863 </v>
   <v>       0.42715086       1.09746466       0.50878699 </v>
   <v>       0.02171860      -0.72833509       0.14173736 </v>
   <v>      -0.54212980      -0.74240494      -0.68027237 </v>
   <v>      -0.83322116       0.62856543       0.51418224 </v>
   <v>       0.71354044      -0.61320575      -0.35809370 </v>
  </varray>
  <varray name="stress" >
   <v>      10.95364260       0.57484618       0.93683878 </v>
   <v>       0.57484631      15.57713662       1.60404216 </v>
   <v>       0.93683865       1.60404221       4.46227778 </v>
  </varray>
  <energy>
   <i name="e_fr_energy">   -300.52146038 </i>
   <i name="e_wo_entrp">   -300.52146038 </i>
   <i name="e_0_energy">      0.00000000 </i>
  </energy>
  <time name="totalsc"> 1100.85 1107.61</time>
 </calculation>
 <calculation>
  <scstep>
   <time name="dav">   65.55   65.90</time>
   <time name="total">   66.34   66.68</time>
   <energy>
    <i name="alphaZ">   1068.47627456 </i>
    <i name="ewald"> -30480.96443312 </i>
    <i name="hartreedc"> -12889.01838535 </i>
    <i name="XCdc">   1273.26058666 </i>
    <i name="pawpsdc">  43973.86345057 </i>
    <i name="pawaedc"> -43288.64902979 </i>
    <i name="eentropy">      0.00000000 </i>
    <i name="bandstr">  -3970.88492283 </i>
    <i name="atom">  44026.03258983 </i>
    <i name="e_fr_energy">   -287.88386947 </i>
    <i name="e_wo_entrp">   -287.88386947 </i>
    <i name="e_0_energy">   -287.88386947 </i>
   </energy>
  </scstep>
  <scstep>
   <time name="dav">   72.32   72.47</time>
   <time name="total">   73.10   73.26</time>
   <energy>
    <i name="e_fr_energy">   -288.00164120 </i>
    <i name="e_wo_entrp">   -288.00164120 </i>
    <i name="e_0_energy">   -288.00164120 </i>
   </energy>
  </scstep>
  <scstep>
   <time name="dav">   78.63   78.94</time>
   <time name="total">   79.42   79.73</time>
   <energy>
    <i name="e_fr_energy">   -287.99597018 </i>
    <i name="e_wo_entrp">   -287.99597018 </i>
    <i name="e_0_energy">   -287.99597018 </i>
   </energy>
  </scstep>
  <scstep>
   <time name="dav">   68.90   69.12</time>
   <time name="total">   69.67   69.92</time>
   <energy>
    <i name="e_fr_energy">   -287.99009657 </i>
    <i name="e_wo_entrp">   -287.99009657 </i>
    <i name="e_0_energy">   -287.99009657 </i>
   </energy>
  </scstep>
  <scstep>
   <time name="dav">   79.27   79.91</time>
   <time name="total">   80.05   80.70</time>
   <energy>
    <i name="e_fr_energy">   -287.98924433 </i>
    <i name="e_wo_entrp">   -287.98924433 </i>
    <i name="e_0_energy">   -287.98924433 </i>
   </energy>
  </scstep>
  <scstep>
   <time name="dav">   70.50   70.95</time>
   <time name="total">   71.28   71.74</time>
   <energy>
    <i name="e_fr_energy">   -287.98921236 </i>
    <i name="e_wo_entrp">   -287.98921236 </i>
    <i name="e_0_energy">   -287.98921236 </i>
   </energy>
  </scstep>
  <scstep>
   <time name="dav">   89.73   89.83</time>
   <time name="total">   90.52   90.62</time>
   <energy>
    <i name="e_fr_energy">   -287.98917717 </i>
    <i name="e_wo_entrp">   -287.98917717 </i>
    <i name="e_0_energy">   -287.98917717 </i>
   </energy>
  </scstep>
  <scstep>
   <time name="dav">   67.56   67.74</time>
   <time name="total">   68.35   68.54</time>
   <energy>
    <i name="e_fr_energy">   -287.98916209 </i>
    <i name="e_wo_entrp">   -287.98916209 </i>
    <i name="e_0_energy">   -287.98916209 </i>
   </energy>
  </scstep>
  <scstep>
   <time name="dav">   78.30   79.33</time>
   <time name="total">   79.09   80.12</time>
   <energy>
    <i name="e_fr_energy">   -287.98916224 </i>
    <i name="e_wo_entrp">   -287.98916224 </i>
    <i name="e_0_energy">   -287.98916224 </i>
   </energy>
  </scstep>
  <scstep>
   <time name="dav">   58.04   59.15</time>
   <time name="total">   58.83   59.94</time>
   <energy>
    <i name="e_fr_energy">   -287.98916364 </i>
    <i name="e_wo_entrp">   -287.98916364 </i>
    <i name="e_0_energy">   -287.98916364 </i>
   </energy>
  </scstep>
  <scstep>
   <time name="dav">   55.17   56.15</time>
   <time name="total">   55.24   56.23</time>
   <energy>
    <i name="alphaZ">   1068.47627456 </i>
    <i name="ewald"> -30480.96443312 </i>
    <i name="hartreedc"> -12899.20807936 </i>
    <i name="XCdc">   1273.65179586 </i>
    <i name="pawpsdc">  43902.51772400 </i>
    <i name="pawaedc"> -43216.44175249 </i>
    <i name="eentropy">      0.00000000 </i>
    <i name="bandstr">  -3962.05328354 </i>
    <i name="atom">  44026.03258983 </i>
    <i name="e_fr_energy">   -287.98916426 </i>
    <i name="e_wo_entrp">   -287.98916426 </i>
    <i name="e_0_energy">   -287.98916426 </i>
   </energy>
  </scstep>
  <structure>
   <crystal>
    <varray name="basis" >
     <v>      11.13684713      -0.00276673      -0.00676076 </v>
     <v>      -0.00236976       9.51890451      -0.00404919 </v>
     <v>      -0.00676312      -0.00472914      11.20740804 </v>
    </varray>
    <i name="volume">   1188.10315268 </i>
    <varray name="rec_basis" >
     <v>       0.08979206       0.00002238       0.00005419 </v>
     <v>       0.00002613       0.10505413       0.00004435 </v>
     <v>       0.00005418       0.00003797       0.08922675 </v>
    </varray>
   </crystal>
   <varray name="positions" >
    <v>       0.37123701       0.00030896       0.18727498 </v>
    <v>       0.62090978       0.99960278       0.18651028 </v>
    <v>       0.12721858       0.99934446       0.93769619 </v>
    <v>       0.12469243       0.99961377       0.68551333 </v>
    <v>       0.37101335      -0.00003107       0.68643953 </v>
    <v>       0.87868283       0.00016063       0.93416167 </v>
    <v>       0.61746591       0.99892485       0.43489644 </v>
    <v>       0.88526671       0.00026312       0.44282626 </v>
    <v>       0.88166920      -0.00022683       0.18403225 </v>
    <v>       0.62111849       0.00087913       0.93906207 </v>
    <v>       0.62543285       0.00034940       0.68778978 </v>
    <v>       0.00350798       0.29557833       0.06267704 </v>
    <v>       0.24966817       0.71288496       0.06297981 </v>
    <v>       0.24917480       0.28413273       0.31319643 </v>
    <v>       0.49592756       0.70403170       0.31273284 </v>
    <v>       0.49655220       0.29570980       0.06287893 </v>
    <v>       0.75072238       0.69548891       0.06239470 </v>
    <v>       0.75006827       0.30863203       0.31239920 </v>
    <v>       0.00442606       0.70393085       0.31292003 </v>
    <v>       0.00294106       0.29106525       0.56333520 </v>
    <v>       0.24936091       0.71280617       0.56178773 </v>
    <v>       0.24946952       0.29101273       0.81324512 </v>
    <v>       0.49606089       0.69997258       0.81356572 </v>
    <v>       0.49596814       0.30029353       0.56202523 </v>
    <v>       0.75204272       0.69560564       0.56400129 </v>
    <v>       0.75208117       0.30036235       0.81243075 </v>
    <v>       0.00182918       0.70901440       0.81224732 </v>
    <v>       0.25042967       0.32789420       0.06203035 </v>
    <v>      -0.00260473       0.67266492       0.06344438 </v>
    <v>       0.50285541       0.32693658       0.31331398 </v>
    <v>       0.25044657       0.67222360       0.31285849 </v>
    <v>       0.74987592       0.32651671       0.06320534 </v>
    <v>       0.50247068       0.67299421       0.06246523 </v>
    <v>       0.99667803       0.32679995       0.31246833 </v>
    <v>       0.74988889       0.67379131       0.31303898 </v>
    <v>       0.25118244       0.32785977       0.56368692 </v>
    <v>      -0.00254316       0.67267777       0.56221363 </v>
    <v>       0.50186444       0.32684230       0.81250817 </v>
    <v>       0.25098742       0.67185679       0.81283245 </v>
    <v>       0.74905858       0.32614486       0.56227808 </v>
    <v>       0.50255041       0.67327385       0.56315133 </v>
    <v>       0.99819485       0.32771443       0.81330410 </v>
    <v>       0.74882801       0.67359311       0.81295109 </v>
    <v>       0.50610737       0.07711845       0.06250430 </v>
    <v>       0.25010311       0.91464663       0.06223602 </v>
    <v>       0.25227152       0.08756461       0.31068383 </v>
    <v>      -0.00983893       0.92368909       0.31212067 </v>
    <v>       0.99370516       0.07763792       0.06255014 </v>
    <v>       0.74956304       0.92952517       0.06304397 </v>
    <v>       0.75119988       0.06743436       0.31404113 </v>
    <v>       0.50674828       0.92311630       0.31248123 </v>
    <v>       0.50749479       0.07338112       0.56460797 </v>
    <v>       0.25060321       0.91513364       0.56669418 </v>
    <v>       0.24860467       0.08201798       0.81031891 </v>
    <v>       0.00071584       0.91839732       0.81505700 </v>
    <v>       0.99609371       0.08167988       0.56004998 </v>
    <v>       0.74544351       0.92974081       0.55786250 </v>
    <v>       0.74390809       0.07309550       0.81463392 </v>
    <v>       0.50721518       0.92621568       0.81007331 </v>
   </varray>
  </structure>
  <varray name="forces" >
   <v>      -0.64565117       0.03273189       0.12305277 </v>
   <v>      -0.33631588      -0.03782427       0.01776068 </v>
   <v>       0.37196159      -0.07067863       0.21463440 </v>
   <v>      -0.04810628      -0.02874598      -0.30019751 </v>
   <v>      -0.48569998      -0.02403332      -0.09634705 </v>
   <v>       0.34619641       0.00974277      -0.53432977 </v>
   <v>      -0.54061948       0.00731999      -0.28508117 </v>
   <v>       0.50513602      -0.12630106       0.64377667 </v>
   <v>       0.37905821      -0.06850797      -0.14012765 </v>
   <v>      -0.44459021       0.06352777       0.38904755 </v>
   <v>       0.58725917       0.02882824      -0.03111522 </v>
   <v>       0.40924872       0.17868102       0.03426978 </v>
   <v>      -0.06275972      -1.56768427      -0.00996453 </v>
   <v>      -0.19839276       2.25586339       0.15285341 </v>
   <v>      -0.42407770      -0.03743418       0.03028554 </v>
   <v>      -0.44746428       0.05088917      -0.03678921 </v>
   <v>       0.07516500      -0.11108017       0.01495207 </v>
   <v>       0.06635223       0.20767542      -0.03868697 </v>
   <v>       0.54899150       0.10943048      -0.03917011 </v>
   <v>       0.34609908       0.71615097       0.06957026 </v>
   <v>      -0.03879236      -1.41695603      -0.23467095 </v>
   <v>       0.04403334       0.78629777       0.09409770 </v>
   <v>      -0.52461097       0.01120398       0.08395070 </v>
   <v>      -0.53121943      -0.02788254      -0.10176380 </v>
   <v>       0.17678523      -0.00784159       0.06348919 </v>
   <v>       0.26412698      -0.11345998      -0.05679022 </v>
   <v>       0.19236146      -0.64151738      -0.07351758 </v>
   <v>       0.06329016       0.14718907      -0.16879309 </v>
   <v>      -0.41320249      -0.13781303       0.12559052 </v>
   <v>       0.41473579       0.10581054       0.07993685 </v>
   <v>       0.09707396      -0.10455295      -0.01527106 </v>
   <v>      -0.01126045       0.20086057       0.01250315 </v>
   <v>       0.34016444      -0.08871157      -0.07055420 </v>
   <v>      -0.53365870       0.08643630      -0.05981984 </v>
   <v>       0.00215813      -0.27386705       0.02519133 </v>
   <v>       0.20108956       0.15664375       0.19414576 </v>
   <v>      -0.39007800      -0.05495169      -0.14513788 </v>
   <v>       0.26821203       0.13468090      -0.04481760 </v>
   <v>       0.18029140      -0.24447314      -0.02200707 </v>
   <v>      -0.09249105       0.14145599      -0.05386540 </v>
   <v>       0.33658594      -0.12644617       0.03210821 </v>
   <v>      -0.25175050       0.14102083       0.08757151 </v>
   <v>      -0.13470820      -0.09588759       0.01763743 </v>
   <v>       0.78565480       0.09269598       0.27169702 </v>
   <v>       0.02539935       1.75523937      -0.05054796 </v>
   <v>       0.59646550      -2.68437182      -0.54207822 </v>
   <v>      -1.34911956      -0.34891323      -0.00336400 </v>
   <v>      -0.72609427       0.07090904      -0.39780214 </v>
   <v>       0.01258618      -0.36402232       0.00763180 </v>
   <v>       0.34500472       0.43934561       0.28746746 </v>
   <v>       0.66204975      -0.22020268      -0.42685961 </v>
   <v>       0.90132879       0.43288899       0.47779255 </v>
   <v>       0.05285582       1.68107913       1.09187801 </v>
   <v>      -0.48037615      -0.83752885      -0.52112088 </v>
   <v>       0.38834620       0.74329575       0.53272154 </v>
   <v>      -0.16466137      -0.46523940      -0.01515602 </v>
   <v>      -0.65384035      -0.46584875      -0.77048815 </v>
   <v>      -0.97757519       0.40162331       0.52261607 </v>
   <v>       0.92104906      -0.39674039      -0.41199507 </v>
  </varray>
  <varray name="stress" >
   <v>       7.81918140       0.37454231       0.60986442 </v>
   <v>       0.37454207       7.65509153       0.99751011 </v>
   <v>       0.60986454       0.99751010       3.93923788 </v>
  </varray>
  <energy>
   <i name="e_fr_energy">   -300.62432546 </i>
   <i name="e_wo_entrp">   -300.62432546 </i>
   <i name="e_0_energy">      0.00000000 </i>
  </energy>
  <time name="totalsc">  899.19  904.95</time>
 </calculation>
 <calculation>
  <scstep>
   <time name="dav">   69.30   69.61</time>
   <time name="total">   70.14   70.46</time>
   <energy>
    <i name="alphaZ">   1059.06262238 </i>
    <i name="ewald"> -30504.22538460 </i>
    <i name="hartreedc"> -12755.67695920 </i>
    <i name="XCdc">   1267.92655157 </i>
    <i name="pawpsdc">  43902.74926460 </i>
    <i name="pawaedc"> -43216.67302789 </i>
    <i name="eentropy">      0.00000000 </i>
    <i name="bandstr">  -4066.56281474 </i>
    <i name="atom">  44026.03258983 </i>
    <i name="e_fr_energy">   -287.36715804 </i>
    <i name="e_wo_entrp">   -287.36715804 </i>
    <i name="e_0_energy">   -287.36715804 </i>
   </energy>
  </scstep>
  <scstep>
   <time name="dav">   66.10   66.42</time>
   <time name="total">   66.89   67.21</time>
   <energy>
    <i name="e_fr_energy">   -289.01157446 </i>
    <i name="e_wo_entrp">   -289.01157446 </i>
    <i name="e_0_energy">   -289.01157446 </i>
   </energy>
  </scstep>
  <scstep>
   <time name="dav">   78.97   79.36</time>
   <time name="total">   79.75   80.16</time>
   <energy>
    <i name="e_fr_energy">   -288.96797700 </i>
    <i name="e_wo_entrp">   -288.96797700 </i>
    <i name="e_0_energy">   -288.96797700 </i>
   </energy>
  </scstep>
  <scstep>
   <time name="dav">   76.77   76.91</time>
   <time name="total">   77.57   77.72</time>
   <energy>
    <i name="e_fr_energy">   -288.93470723 </i>
    <i name="e_wo_entrp">   -288.93470723 </i>
    <i name="e_0_energy">   -288.93470723 </i>
   </energy>
  </scstep>
  <scstep>
   <time name="dav">   78.80   79.10</time>
   <time name="total">   79.59   79.89</time>
   <energy>
    <i name="e_fr_energy">   -288.91266584 </i>
    <i name="e_wo_entrp">   -288.91266584 </i>
    <i name="e_0_energy">   -288.91266584 </i>
   </energy>
  </scstep>
  <scstep>
   <time name="dav">   72.69   72.95</time>
   <time name="total">   73.48   73.73</time>
   <energy>
    <i name="e_fr_energy">   -288.90835985 </i>
    <i name="e_wo_entrp">   -288.90835985 </i>
    <i name="e_0_energy">   -288.90835985 </i>
   </energy>
  </scstep>
  <scstep>
   <time name="dav">   74.70   74.86</time>
   <time name="total">   75.58   75.75</time>
   <energy>
    <i name="e_fr_energy">   -288.90860081 </i>
    <i name="e_wo_entrp">   -288.90860081 </i>
    <i name="e_0_energy">   -288.90860081 </i>
   </energy>
  </scstep>
  <scstep>
   <time name="dav">   76.43   76.67</time>
   <time name="total">   77.21   77.46</time>
   <energy>
    <i name="e_fr_energy">   -288.90841706 </i>
    <i name="e_wo_entrp">   -288.90841706 </i>
    <i name="e_0_energy">   -288.90841706 </i>
   </energy>
  </scstep>
  <scstep>
   <time name="dav">   78.26   78.55</time>
   <time name="total">   79.04   79.34</time>
   <energy>
    <i name="e_fr_energy">   -288.90835129 </i>
    <i name="e_wo_entrp">   -288.90835129 </i>
    <i name="e_0_energy">   -288.90835129 </i>
   </energy>
  </scstep>
  <scstep>
   <time name="dav">   76.04   76.27</time>
   <time name="total">   76.83   77.06</time>
   <energy>
    <i name="e_fr_energy">   -288.90835156 </i>
    <i name="e_wo_entrp">   -288.90835156 </i>
    <i name="e_0_energy">   -288.90835156 </i>
   </energy>
  </scstep>
  <scstep>
   <time name="dav">   72.34   72.61</time>
   <time name="total">   73.13   73.40</time>
   <energy>
    <i name="e_fr_energy">   -288.90835506 </i>
    <i name="e_wo_entrp">   -288.90835506 </i>
    <i name="e_0_energy">   -288.90835506 </i>
   </energy>
  </scstep>
  <scstep>
   <time name="dav">   64.07   64.35</time>
   <time name="total">   64.85   65.14</time>
   <energy>
    <i name="e_fr_energy">   -288.90835803 </i>
    <i name="e_wo_entrp">   -288.90835803 </i>
    <i name="e_0_energy">   -288.90835803 </i>
   </energy>
  </scstep>
  <scstep>
   <time name="dav">   60.82   61.26</time>
   <time name="total">   61.61   62.06</time>
   <energy>
    <i name="e_fr_energy">   -288.90836038 </i>
    <i name="e_wo_entrp">   -288.90836038 </i>
    <i name="e_0_energy">   -288.90836038 </i>
   </energy>
  </scstep>
  <scstep>
   <time name="dav">   46.23   47.17</time>
   <time name="total">   46.30   47.24</time>
   <energy>
    <i name="alphaZ">   1059.06262238 </i>
    <i name="ewald"> -30504.22538460 </i>
    <i name="hartreedc"> -12834.25130822 </i>
    <i name="XCdc">   1271.58300549 </i>
    <i name="pawpsdc">  43547.57024741 </i>
    <i name="pawaedc"> -42856.41321757 </i>
    <i name="eentropy">      0.00000000 </i>
    <i name="bandstr">  -3998.26691547 </i>
    <i name="atom">  44026.03258983 </i>
    <i name="e_fr_energy">   -288.90836076 </i>
    <i name="e_wo_entrp">   -288.90836076 </i>
    <i name="e_0_energy">   -288.90836076 </i>
   </energy>
  </scstep>
  <structure>
   <crystal>
    <varray name="basis" >
     <v>      11.17354564      -0.00128783      -0.00514612 </v>
     <v>      -0.00110575       9.54237998       0.00011448 </v>
     <v>      -0.00513885       0.00017573      11.24216033 </v>
    </varray>
    <i name="volume">   1198.66380282 </i>
    <varray name="rec_basis" >
     <v>       0.08949713       0.00001037       0.00004091 </v>
     <v>       0.00001208       0.10479566      -0.00000163 </v>
     <v>       0.00004097      -0.00000106       0.08895089 </v>
    </varray>
   </crystal>
   <varray name="positions" >
    <v>       0.36733672       0.00051808       0.18792802 </v>
    <v>       0.61819403       0.99933218       0.18645689 </v>
    <v>       0.12942613       0.99882337       0.93888253 </v>
    <v>       0.12451807       0.99939164       0.68378530 </v>
    <v>       0.36770583      -0.00022152       0.68588449 </v>
    <v>       0.88129462       0.00020440       0.93098541 </v>
    <v>       0.61240396       0.99863537       0.43301270 </v>
    <v>       0.89086829      -0.00032073       0.44759964 </v>
    <v>       0.88574523      -0.00070327       0.18245817 </v>
    <v>       0.61774841       0.00155830       0.94145093 </v>
    <v>       0.62819109       0.00067182       0.68798296 </v>
    <v>       0.00641707       0.29659500       0.06277601 </v>
    <v>       0.24924097       0.70802375       0.06299569 </v>
    <v>       0.24809812       0.29132618       0.31396802 </v>
    <v>       0.49275774       0.70357209       0.31282662 </v>
    <v>       0.49341246       0.29614238       0.06274746 </v>
    <v>       0.75124573       0.69165465       0.06231078 </v>
    <v>       0.75041817       0.31439507       0.31209326 </v>
    <v>       0.00833676       0.70416006       0.31279398 </v>
    <v>       0.00538565       0.29313313       0.56381151 </v>
    <v>       0.24892562       0.70865770       0.56044882 </v>
    <v>       0.24951448       0.29340632       0.81378743 </v>
    <v>       0.49251544       0.69832046       0.81417387 </v>
    <v>       0.49227079       0.30195519       0.56132433 </v>
    <v>       0.75345846       0.69232099       0.56468216 </v>
    <v>       0.75396954       0.30162937       0.81205939 </v>
    <v>       0.00332649       0.70734287       0.81174067 </v>
    <v>       0.25082891       0.32901423       0.06103617 </v>
    <v>      -0.00527541       0.67178739       0.06417105 </v>
    <v>       0.50562146       0.32751683       0.31380848 </v>
    <v>       0.25102909       0.67135456       0.31279421 </v>
    <v>       0.74976764       0.32741522       0.06337846 </v>
    <v>       0.50475188       0.67247525       0.06203391 </v>
    <v>       0.99328341       0.32723433       0.31207961 </v>
[...]
       <r>    8.6707    0.0000 </r>
       <r>    8.7167    0.0000 </r>
       <r>    8.7707    0.0000 </r>
       <r>    8.8874    0.0000 </r>
       <r>    8.9332    0.0000 </r>
       <r>    9.1610    0.0000 </r>
       <r>    9.3628    0.0000 </r>
       <r>    9.9534    0.0000 </r>
       <r>    9.9665    0.0000 </r>
      </set>
     </set>
    </set>
   </array>
  </eigenvalues>
  <separator name="orbital magnetization" >
   <v name="MAGDIPOLOUT">      0.00000000      0.00000000      0.00000000</v>
  </separator>
  <dos>
   <i name="efermi">      4.17103399 </i>
   <total>
    <array>
     <dimension dim="1">gridpoints</dimension>
     <dimension dim="2">spin</dimension>
     <field>energy</field>
     <field>total</field>
     <field>integrated</field>
     <set>
      <set comment="spin 1">
       <r>   -42.3695     0.0000     0.0000 </r>
       <r>   -42.1864     0.0000     0.0000 </r>
       <r>   -42.0034     0.0000     0.0000 </r>
       <r>   -41.8203     0.0000     0.0000 </r>
       <r>   -41.6373     0.0000     0.0000 </r>
       <r>   -41.4542     0.0000     0.0000 </r>
       <r>   -41.2712     0.0000     0.0000 </r>
       <r>   -41.0881     0.0000     0.0000 </r>
       <r>   -40.9051     0.0000     0.0000 </r>
       <r>   -40.7220     0.0000     0.0000 </r>
       <r>   -40.5390     0.0000     0.0000 </r>
       <r>   -40.3559     0.0000     0.0000 </r>
       <r>   -40.1729     0.0000     0.0000 </r>
       <r>   -39.9898     0.0000     0.0000 </r>
       <r>   -39.8068     0.0000     2.0000 </r>
       <r>   -39.6237     0.0000     4.0000 </r>
       <r>   -39.4407     0.0000     6.0000 </r>
       <r>   -39.2576     0.0000     6.0000 </r>
       <r>   -39.0746     0.0000     8.0000 </r>
       <r>   -38.8915     0.0000    10.0000 </r>
       <r>   -38.7085     0.0000    12.0000 </r>
       <r>   -38.5254     0.0000    12.0000 </r>
       <r>   -38.3424     0.0000    12.0000 </r>
       <r>   -38.1593     0.0000    12.0000 </r>
       <r>   -37.9763     0.0000    12.0000 </r>
       <r>   -37.7932     0.0000    12.0000 </r>
       <r>   -37.6102     0.0000    12.0000 </r>
       <r>   -37.4271     0.0000    12.0000 </r>
       <r>   -37.2441     0.0000    12.0000 </r>
       <r>   -37.0610     0.0000    12.0000 </r>
       <r>   -36.8780     0.0000    12.0000 </r>
       <r>   -36.6949     0.0000    12.0000 </r>
       <r>   -36.5119     0.0000    12.0000 </r>
       <r>   -36.3288     0.0000    12.0000 </r>
       <r>   -36.1458     0.0000    12.0000 </r>
       <r>   -35.9627     0.0000    12.0000 </r>
       <r>   -35.7797     0.0000    12.0000 </r>
       <r>   -35.5966     0.0000    12.0000 </r>
       <r>   -35.4136     0.0000    12.0000 </r>
       <r>   -35.2305     0.0000    12.0000 </r>
       <r>   -35.0475     0.0000    12.0000 </r>
       <r>   -34.8644     0.0000    12.0000 </r>
       <r>   -34.6814     0.0000    12.0000 </r>
       <r>   -34.4983     0.0000    12.0000 </r>
       <r>   -34.3153     0.0000    12.0000 </r>
       <r>   -34.1322     0.0000    12.0000 </r>
       <r>   -33.9492     0.0000    12.0000 </r>
       <r>   -33.7661     0.0000    12.0000 </r>
       <r>   -33.5831     0.0000    12.0000 </r>
       <r>   -33.4000     0.0000    12.0000 </r>
       <r>   -33.2170     0.0000    12.0000 </r>
       <r>   -33.0339     0.0000    12.0000 </r>
       <r>   -32.8509     0.0000    12.0000 </r>
       <r>   -32.6678     0.0000    12.0000 </r>
       <r>   -32.4848     0.0000    12.0000 </r>
       <r>   -32.3017     0.0000    12.0000 </r>
       <r>   -32.1187     0.0000    12.0000 </r>
       <r>   -31.9356     0.0000    12.0000 </r>
       <r>   -31.7526     0.0000    12.0000 </r>
       <r>   -31.5695     0.0000    12.0000 </r>
       <r>   -31.3865     0.0000    12.0000 </r>
       <r>   -31.2034     0.0000    12.0000 </r>
       <r>   -31.0204     0.0000    12.0000 </r>
       <r>   -30.8373     0.0000    12.0000 </r>
       <r>   -30.6543     0.0000    12.0000 </r>
       <r>   -30.4712     0.0000    12.0000 </r>
       <r>   -30.2882     0.0000    12.0000 </r>
       <r>   -30.1051     0.0000    12.0000 </r>
       <r>   -29.9221     0.0000    12.0000 </r>
       <r>   -29.7390     0.0000    12.0000 </r>
       <r>   -29.5560     0.0000    12.0000 </r>
       <r>   -29.3729     0.0000    12.0000 </r>
       <r>   -29.1899     0.0000    12.0000 </r>
       <r>   -29.0068     0.0000    12.0000 </r>
       <r>   -28.8238     0.0000    12.0000 </r>
       <r>   -28.6407     0.0000    12.0000 </r>
       <r>   -28.4577     0.0000    12.0000 </r>
       <r>   -28.2746     0.0000    12.0000 </r>
       <r>   -28.0916     0.0000    12.0000 </r>
       <r>   -27.9085     0.0000    12.0000 </r>
       <r>   -27.7255     0.0000    12.0000 </r>
       <r>   -27.5424     0.0000    12.0000 </r>
       <r>   -27.3594     0.0000    12.0000 </r>
       <r>   -27.1763     0.0000    12.0000 </r>
       <r>   -26.9933     0.0000    12.0000 </r>
       <r>   -26.8102     0.0000    12.0000 </r>
       <r>   -26.6272     0.0000    12.0000 </r>
       <r>   -26.4441     0.0000    12.0000 </r>
       <r>   -26.2611     0.0000    12.0000 </r>
       <r>   -26.0780     0.0000    12.0000 </r>
       <r>   -25.8950     0.0000    12.0000 </r>
       <r>   -25.7119     0.0000    12.0000 </r>
       <r>   -25.5289     0.0000    12.0000 </r>
       <r>   -25.3458     0.0000    12.0000 </r>
       <r>   -25.1628     0.0000    12.0000 </r>
       <r>   -24.9797     0.0000    12.0000 </r>
       <r>   -24.7967     0.0000    12.0000 </r>
       <r>   -24.6136     0.0000    12.0000 </r>
       <r>   -24.4306     0.0000    12.0000 </r>
       <r>   -24.2475     0.0000    12.0000 </r>
       <r>   -24.0645     0.0000    12.0000 </r>
       <r>   -23.8814     0.0000    12.0000 </r>
       <r>   -23.6984     0.0000    12.0000 </r>
       <r>   -23.5153     0.0000    12.0000 </r>
       <r>   -23.3323     0.0000    12.0000 </r>
       <r>   -23.1492     0.0000    12.0000 </r>
       <r>   -22.9662     0.0000    12.0000 </r>
       <r>   -22.7831     0.0000    12.0000 </r>
       <r>   -22.6001     0.0000    12.0000 </r>
       <r>   -22.4170     0.0000    12.0000 </r>
       <r>   -22.2340     0.0000    12.0000 </r>
       <r>   -22.0509     0.0000    12.0000 </r>
       <r>   -21.8679     0.0000    12.0000 </r>
       <r>   -21.6848     0.0000    12.0000 </r>
       <r>   -21.5018     0.0000    12.0000 </r>
       <r>   -21.3187     0.0000    12.0000 </r>
       <r>   -21.1357     0.0000    12.0000 </r>
       <r>   -20.9526     0.0000    12.0000 </r>
       <r>   -20.7696     0.0000    12.0000 </r>
       <r>   -20.5865     0.0000    12.0000 </r>
       <r>   -20.4035     0.0000    12.0000 </r>
       <r>   -20.2204     0.0000    12.0000 </r>
       <r>   -20.0374     0.0000    12.0000 </r>
       <r>   -19.8543     0.0000    12.0000 </r>
       <r>   -19.6713     0.0000    12.0000 </r>
       <r>   -19.4882     0.0000    12.0000 </r>
       <r>   -19.3052     0.0000    12.0000 </r>
       <r>   -19.1221     0.0000    12.0000 </r>
       <r>   -18.9391     0.0000    18.0000 </r>
       <r>   -18.7560     0.0000    68.0000 </r>
       <r>   -18.5730     0.0000   118.0000 </r>
       <r>   -18.3899     0.0000   156.0000 </r>
       <r>   -18.2069     0.0000   172.0000 </r>
       <r>   -18.0238     0.0000   172.0000 </r>
       <r>   -17.8408     0.0000   172.0000 </r>
       <r>   -17.6577     0.0000   172.0000 </r>
       <r>   -17.4747     0.0000   172.0000 </r>
       <r>   -17.2916     0.0000   172.0000 </r>
       <r>   -17.1086     0.0000   172.0000 </r>
       <r>   -16.9255     0.0000   172.0000 </r>
       <r>   -16.7425     0.0000   172.0000 </r>
       <r>   -16.5594     0.0000   172.0000 </r>
       <r>   -16.3764     0.0000   172.0000 </r>
       <r>   -16.1933     0.0000   172.0000 </r>
       <r>   -16.0103     0.0000   172.0000 </r>
       <r>   -15.8272     0.0000   172.0000 </r>
       <r>   -15.6442     0.0000   172.0000 </r>
       <r>   -15.4611     0.0000   172.0000 </r>
       <r>   -15.2781     0.0000   172.0000 </r>
       <r>   -15.0950     0.0000   172.0000 </r>
       <r>   -14.9120     0.0000   172.0000 </r>
       <r>   -14.7289     0.0000   172.0000 </r>
       <r>   -14.5459     0.0000   172.0000 </r>
       <r>   -14.3628     0.0000   172.0000 </r>
       <r>   -14.1798     0.0000   172.0000 </r>
       <r>   -13.9967     0.0000   172.0000 </r>
       <r>   -13.8137     0.0000   172.0000 </r>
       <r>   -13.6306     0.0000   172.0000 </r>
       <r>   -13.4476     0.0000   174.0000 </r>
       <r>   -13.2645    92.6547   177.3452 </r>
       <r>   -13.0815     0.0000   182.0000 </r>
       <r>   -12.8984     0.0000   188.0000 </r>
       <r>   -12.7154     0.0000   192.0000 </r>
       <r>   -12.5323     0.0000   196.0000 </r>
       <r>   -12.3493     0.0000   200.0000 </r>
       <r>   -12.1662     0.0000   204.0000 </r>
       <r>   -11.9832     0.0000   204.0000 </r>
       <r>   -11.8001     0.0000   204.0000 </r>
       <r>   -11.6171     0.0000   204.0000 </r>
       <r>   -11.4340     0.0000   204.0000 </r>
       <r>   -11.2510     0.0000   204.0000 </r>
       <r>   -11.0679     0.0000   204.0000 </r>
       <r>   -10.8848     0.0000   204.0000 </r>
       <r>   -10.7018     0.0000   204.0000 </r>
       <r>   -10.5187     0.0000   204.0000 </r>
       <r>   -10.3357     0.0000   204.0000 </r>
       <r>   -10.1526     0.0000   204.0000 </r>
       <r>    -9.9696     0.0000   204.0000 </r>
       <r>    -9.7865     0.0000   204.0000 </r>
       <r>    -9.6035     0.0000   204.0000 </r>
       <r>    -9.4204    10.4356   204.5816 </r>
       <r>    -9.2374     4.7773   206.0960 </r>
       <r>    -9.0543     7.4477   207.4520 </r>
       <r>    -8.8713     0.0690   208.0000 </r>
       <r>    -8.6882    21.4762   211.6627 </r>
       <r>    -8.5052    20.0917   215.5792 </r>
       <r>    -8.3221    26.3007   218.2459 </r>
       <r>    -8.1391    16.1446   220.6997 </r>
       <r>    -7.9560    33.7675   226.9145 </r>
       <r>    -7.7730    10.9655   231.1005 </r>
       <r>    -7.5899    26.1804   233.7754 </r>
       <r>    -7.4069     0.0000   236.0000 </r>
       <r>    -7.2238     0.0000   236.0000 </r>
       <r>    -7.0408     0.0000   236.0000 </r>
       <r>    -6.8577     0.0000   236.0000 </r>
       <r>    -6.6747     0.0000   236.0000 </r>
       <r>    -6.4916     0.0000   236.0000 </r>
       <r>    -6.3086    21.7484   237.1391 </r>
       <r>    -6.1255    22.9872   241.5543 </r>
       <r>    -5.9425     3.2888   243.9320 </r>
       <r>    -5.7594    29.2511   247.8539 </r>
       <r>    -5.5764     6.6238   251.7568 </r>
       <r>    -5.3933    15.9252   255.5493 </r>
       <r>    -5.2103    17.5038   258.1886 </r>
       <r>    -5.0272     3.0660   259.9507 </r>
       <r>    -4.8442    14.5939   261.9220 </r>
       <r>    -4.6611     7.8230   263.6467 </r>
       <r>    -4.4781     6.0532   264.7370 </r>
       <r>    -4.2950    11.4071   266.3019 </r>
       <r>    -4.1120     3.0453   267.4910 </r>
       <r>    -3.9289     1.3654   267.8945 </r>
       <r>    -3.7459     0.0086   268.0000 </r>
       <r>    -3.5628     0.0000   268.0000 </r>
       <r>    -3.3798     0.0000   268.0000 </r>
       <r>    -3.1967     0.0000   268.0000 </r>
       <r>    -3.0137     0.0000   268.0000 </r>
       <r>    -2.8306     0.0000   268.0000 </r>
       <r>    -2.6476     0.0000   268.0000 </r>
       <r>    -2.4645     0.0000   268.0000 </r>
       <r>    -2.2815     0.0000   268.0000 </r>
       <r>    -2.0984     0.0000   268.0000 </r>
       <r>    -1.9154     0.0000   268.0000 </r>
       <r>    -1.7323     0.0000   268.0000 </r>
       <r>    -1.5493     0.0000   268.0000 </r>
       <r>    -1.3662     1.7790   268.0344 </r>
       <r>    -1.1832     6.4071   268.9102 </r>
       <r>    -1.0001     8.3197   270.3418 </r>
       <r>    -0.8171    13.8339   272.1910 </r>
       <r>    -0.6340    11.7290   274.7207 </r>
       <r>    -0.4510    22.8633   278.6790 </r>
       <r>    -0.2679    33.6976   283.8174 </r>
       <r>    -0.0849    34.6234   290.0701 </r>
       <r>     0.0982    30.4885   296.0565 </r>
       <r>     0.2812    33.5650   302.6523 </r>
       <r>     0.4643    32.7524   310.0405 </r>
       <r>     0.6473    37.2859   315.7309 </r>
       <r>     0.8304    21.1463   323.5755 </r>
       <r>     1.0134    47.5626   331.9128 </r>
       <r>     1.1965    45.9873   339.6653 </r>
       <r>     1.3795    48.1912   347.9680 </r>
       <r>     1.5626    51.9620   357.0074 </r>
       <r>     1.7456    40.9783   365.6477 </r>
       <r>     1.9287    61.0520   373.7285 </r>
       <r>     2.1117    35.2836   381.5664 </r>
       <r>     2.2948    56.1299   390.3266 </r>
       <r>     2.4778    58.1940   400.6706 </r>
       <r>     2.6609    58.4741   410.7091 </r>
       <r>     2.8439    66.3438   421.4022 </r>
       <r>     3.0270    47.9736   432.1526 </r>
       <r>     3.2100    38.3275   439.6795 </r>
       <r>     3.3931    43.7988   447.1724 </r>
       <r>     3.5761    23.7259   453.4120 </r>
       <r>     3.7592    19.2020   457.4652 </r>
       <r>     3.9422     5.9526   459.5697 </r>
       <r>     4.1253     0.0383   459.9999 </r>
       <r>     4.3083     0.0000   460.0000 </r>
       <r>     4.4914     0.0000   460.0000 </r>
       <r>     4.6744     0.0000   460.0000 </r>
       <r>     4.8575     0.0000   460.0000 </r>
       <r>     5.0405     0.0000   460.0000 </r>
       <r>     5.2236     2.1874   460.1113 </r>
       <r>     5.4066    10.2582   461.2172 </r>
       <r>     5.5897    12.8099   463.4411 </r>
       <r>     5.7727    19.6894   466.6745 </r>
       <r>     5.9558    15.0069   469.8146 </r>
       <r>     6.1388    15.8698   472.5992 </r>
       <r>     6.3219    16.7782   475.5507 </r>
       <r>     6.5049    17.4767   478.7163 </r>
       <r>     6.6880    18.1052   481.9556 </r>
       <r>     6.8710    19.4859   485.3936 </r>
       <r>     7.0541    22.1915   489.1527 </r>
       <r>     7.2371    23.5714   493.3880 </r>
       <r>     7.4202    38.9305   498.9722 </r>
       <r>     7.6032    30.3714   504.0239 </r>
       <r>     7.7863    41.7392   510.1450 </r>
       <r>     7.9693    33.7281   516.3141 </r>
       <r>     8.1524    27.4240   522.0626 </r>
       <r>     8.3354    29.6739   527.4201 </r>
       <r>     8.5185    25.4124   532.3169 </r>
       <r>     8.7015    32.5985   537.2518 </r>
       <r>     8.8846    26.1551   543.0685 </r>
       <r>     9.0676    25.2426   547.8007 </r>
       <r>     9.2507    18.2033   551.5970 </r>
       <r>     9.4337    17.7290   555.2871 </r>
       <r>     9.6168     5.9107   556.6754 </r>
       <r>     9.7998    10.5221   558.1019 </r>
       <r>     9.9829     5.7965   559.8055 </r>
       <r>    10.1659     0.0000   560.0000 </r>
       <r>    10.3490     0.0000   560.0000 </r>
       <r>    10.5320     0.0000   560.0000 </r>
       <r>    10.7151     0.0000   560.0000 </r>
       <r>    10.8981     0.0000   560.0000 </r>
       <r>    11.0812     0.0000   560.0000 </r>
       <r>    11.2642     0.0000   560.0000 </r>
       <r>    11.4473     0.0000   560.0000 </r>
       <r>    11.6303     0.0000   560.0000 </r>
       <r>    11.8134     0.0000   560.0000 </r>
       <r>    11.9964     0.0000   560.0000 </r>
       <r>    12.1795     0.0000   560.0000 </r>
       <r>    12.3625     0.0000   560.0000 </r>
       <r>    12.5456     0.0000   560.0000 </r>
      </set>
     </set>
    </array>
   </total>
  </dos>
 </calculation>
 <structure name="finalpos" >
  <crystal>
   <varray name="basis" >
    <v>      11.23179322      -0.05137986       0.02555385 </v>
    <v>      -0.04343843       9.54181315       0.13080065 </v>
    <v>       0.02532823       0.15828738      11.22051973 </v>
   </varray>
   <i name="volume">   1202.25775363 </i>
   <varray name="rec_basis" >
    <v>       0.08903532       0.00040816      -0.00020674 </v>
    <v>       0.00048289       0.10482437      -0.00147984 </v>
    <v>      -0.00020840      -0.00122290       0.08914015 </v>
   </varray>
  </crystal>
  <varray name="positions" >
   <v>       0.34495875       0.01789837       0.08841554 </v>
   <v>       0.57521003       0.97818668       0.17944057 </v>
   <v>       0.17888053       0.97469506       0.88998279 </v>
   <v>       0.13210671       0.01516238       0.66301312 </v>
   <v>       0.37637314       0.01089873       0.68834433 </v>
   <v>       0.91812073       0.04945449       0.89741942 </v>
   <v>       0.62034786       0.01716366       0.43758899 </v>
   <v>       0.88720802      -0.00130423       0.45733777 </v>
   <v>       0.84876862       0.00381470       0.18948579 </v>
   <v>       0.62565949       0.00845097       0.94827114 </v>
   <v>       0.65479188       0.00810515       0.69407125 </v>
   <v>      -0.00165514       0.30879785       0.07054455 </v>
   <v>       0.24304501       0.68663233       0.06294929 </v>
   <v>       0.25937887       0.16627481       0.31912285 </v>
   <v>       0.49182856       0.69237565       0.32402908 </v>
   <v>       0.49214750       0.31263529       0.06871331 </v>
   <v>       0.74146271       0.68900568       0.07335335 </v>
   <v>       0.75303854       0.32554483       0.32134348 </v>
   <v>      -0.00086619       0.69617264       0.31328701 </v>
   <v>       0.00911063       0.31299009       0.56270823 </v>
   <v>       0.24891521       0.71431006       0.56323145 </v>
   <v>       0.24949496       0.30664418       0.81080968 </v>
   <v>       0.49710972       0.70050025       0.82165337 </v>
   <v>       0.49937469       0.31684322       0.56826476 </v>
   <v>       0.74787335       0.68889893       0.56681346 </v>
   <v>       0.75095778       0.32704073       0.82218054 </v>
   <v>       0.00519073       0.71882113       0.81600467 </v>
   <v>       0.24178357       0.28422849       0.08937645 </v>
   <v>      -0.01317802       0.67026128       0.06483571 </v>
   <v>       0.48788532       0.29520942       0.33037404 </v>
   <v>       0.24063985       0.66982126       0.31365407 </v>
   <v>       0.73760180       0.36121390       0.07363473 </v>
   <v>       0.49424204       0.65621631       0.06764586 </v>
   <v>       0.98858930       0.35266065       0.31881728 </v>
   <v>       0.74030093       0.63502513       0.31744691 </v>
   <v>       0.24836329       0.35574866       0.57359260 </v>
   <v>      -0.01064956       0.68936757       0.56278486 </v>
   <v>       0.49545856       0.36026122       0.82607871 </v>
   <v>       0.23725449       0.64201329       0.81106407 </v>
   <v>       0.74661268       0.36169814       0.57472543 </v>
   <v>       0.49578647       0.65219608       0.56944451 </v>
   <v>       0.99081872       0.32989560       0.82192550 </v>
   <v>       0.74000204       0.66346395       0.81580768 </v>
   <v>       0.51056915       0.09465862       0.05591901 </v>
   <v>       0.25511875       0.88850301       0.01407157 </v>
   <v>       0.31873280      -0.00750236       0.25356741 </v>
   <v>      -0.05355314       0.90662171       0.31268279 </v>
   <v>       0.94225727       0.10293000       0.06512201 </v>
   <v>       0.71956482       0.91527183       0.08521526 </v>
   <v>       0.76378153       0.09438481       0.33832697 </v>
   <v>       0.54893663       0.89493245       0.32619074 </v>
   <v>       0.53726184       0.09663588       0.58219210 </v>
   <v>       0.26407128       0.92193246       0.58649399 </v>
   <v>       0.25503063       0.09690360       0.78125564 </v>
   <v>       0.02899866       0.93099214       0.81607696 </v>
   <v>       0.00416403       0.09826912       0.55377711 </v>
   <v>       0.74095246       0.92162547       0.55447594 </v>
   <v>       0.73864561       0.10047764       0.82967335 </v>
   <v>       0.53973351       0.91795905       0.81110096 </v>
  </varray>
 </structure>
</modeling>
