<?xml version="1.0" encoding="ISO-8859-1"?>
<modeling>
 <generator>
  <i name="program" type="string">vasp </i>
  <i name="version" type="string">5.4.4.18Apr17-6-g9f103f2a35  </i>
  <i name="subversion" type="string">(build Jul 31 2017 11:33:29) complex            parallel </i>
  <i name="platform" type="string">LinuxIFC </i>
  <i name="date" type="string">2021 09 20 </i>
  <i name="time" type="string">19:41:24 </i>
 </generator>
 <incar>
  <i type="string" name="SYSTEM"> La2O2S</i>
  <i type="string" name="PREC">normal</i>
  <i type="int" name="NELMIN">     4</i>
  <i type="int" name="IBRION">     2</i>
  <i type="int" name="NFREE">    10</i>
  <i name="EDIFF">      0.00000100</i>
  <i name="EDIFFG">     -0.01000000</i>
  <i type="int" name="NSW">   200</i>
  <i type="int" name="ISIF">     3</i>
  <i name="ENCUT">    600.00000000</i>
  <i name="ENAUG">    900.00000000</i>
  <i type="int" name="ISMEAR">    -5</i>
  <i type="logical" name="LWAVE"> F  </i>
  <i type="logical" name="LCHARG"> F  </i>
  <v type="int" name="KPOINT_BSE">    -1     0     0     0</v>
 </incar>
 <structure name="primitive_cell" >
  <crystal>
   <varray name="basis" >
    <v>      11.17850000       0.00000000       0.00000000 </v>
    <v>       0.00000000       9.57460000       0.00000000 </v>
    <v>       0.00000000       0.00000000      11.18240000 </v>
   </varray>
   <i name="volume">   1196.84853820 </i>
   <varray name="rec_basis" >
    <v>       0.08945744       0.00000000       0.00000000 </v>
    <v>       0.00000000       0.10444301       0.00000000 </v>
    <v>       0.00000000       0.00000000       0.08942624 </v>
   </varray>
  </crystal>
  <varray name="positions" >
   <v>      -0.37461000      -0.00016000       0.43687000 </v>
   <v>      -0.24987000       0.07798000       0.31246000 </v>
   <v>      -0.49987000      -0.07798000       0.31246000 </v>
   <v>      -0.25013000      -0.07798000      -0.43754000 </v>
   <v>       0.49987000       0.07798000      -0.43754000 </v>
   <v>      -0.37539000      -0.00016000       0.18687000 </v>
   <v>      -0.37539000      -0.00016000      -0.31313000 </v>
   <v>      -0.25013000       0.29519000       0.31282000 </v>
   <v>       0.49987000      -0.29519000       0.31282000 </v>
   <v>      -0.24987000      -0.29519000      -0.43719000 </v>
   <v>      -0.49987000       0.29519000      -0.43719000 </v>
   <v>      -0.25005000      -0.32677000       0.31286000 </v>
   <v>       0.49995000       0.32677000       0.31286000 </v>
   <v>      -0.24995000       0.32677000      -0.43714000 </v>
   <v>      -0.49995000      -0.32677000      -0.43714000 </v>
   <v>      -0.12539000       0.00017000       0.18687000 </v>
   <v>      -0.12539000       0.00017000      -0.31313000 </v>
   <v>       0.37461000       0.00017000      -0.31313000 </v>
   <v>      -0.25013000      -0.07798000       0.06246000 </v>
   <v>       0.00013000      -0.07798000       0.31246000 </v>
   <v>      -0.00013000       0.07798000      -0.43754000 </v>
   <v>       0.49987000       0.07798000       0.06246000 </v>
   <v>       0.25013000       0.07798000       0.31246000 </v>
   <v>      -0.24987000       0.07798000      -0.18754000 </v>
   <v>       0.24987000      -0.07798000      -0.43754000 </v>
   <v>      -0.49987000      -0.07798000      -0.18754000 </v>
   <v>      -0.24987000      -0.29519000       0.06281000 </v>
   <v>      -0.00013000      -0.29519000       0.31282000 </v>
   <v>      -0.49987000       0.29519000       0.06281000 </v>
   <v>       0.00013000       0.29519000      -0.43719000 </v>
   <v>       0.24987000       0.29519000       0.31282000 </v>
   <v>       0.25013000      -0.29519000      -0.43719000 </v>
   <v>      -0.25013000       0.29519000      -0.18718000 </v>
   <v>       0.49987000      -0.29519000      -0.18718000 </v>
   <v>      -0.24995000       0.32677000       0.06286000 </v>
   <v>      -0.49995000      -0.32677000       0.06286000 </v>
   <v>      -0.00005000       0.32677000       0.31286000 </v>
   <v>       0.00005000      -0.32677000      -0.43714000 </v>
   <v>       0.24995000      -0.32677000       0.31286000 </v>
   <v>       0.25005000       0.32677000      -0.43714000 </v>
   <v>      -0.25005000      -0.32677000      -0.18714000 </v>
   <v>       0.49995000       0.32677000      -0.18714000 </v>
   <v>      -0.37461000      -0.00016000      -0.06313000 </v>
   <v>      -0.00013000       0.07798000       0.06246000 </v>
   <v>       0.24987000      -0.07798000       0.06246000 </v>
   <v>       0.00013000      -0.07798000      -0.18754000 </v>
   <v>       0.25013000       0.07798000      -0.18754000 </v>
   <v>       0.12461000      -0.00016000      -0.31313000 </v>
   <v>      -0.12461000       0.00017000      -0.06313000 </v>
   <v>       0.00013000       0.29519000       0.06281000 </v>
   <v>       0.25013000      -0.29519000       0.06281000 </v>
   <v>      -0.00013000      -0.29519000      -0.18718000 </v>
   <v>       0.24987000       0.29519000      -0.18718000 </v>
   <v>       0.00005000      -0.32677000       0.06286000 </v>
   <v>       0.25005000       0.32677000       0.06286000 </v>
   <v>      -0.00005000       0.32677000      -0.18714000 </v>
   <v>       0.24995000      -0.32677000      -0.18714000 </v>
   <v>       0.12539000      -0.00016000      -0.06313000 </v>
  </varray>
 </structure>
 <varray name="primitive_index" >
  <v type="int" >        1 </v>
  <v type="int" >       49 </v>
  <v type="int" >       50 </v>
  <v type="int" >       56 </v>
  <v type="int" >       51 </v>
  <v type="int" >        5 </v>
  <v type="int" >        9 </v>
  <v type="int" >       17 </v>
  <v type="int" >       14 </v>
  <v type="int" >       24 </v>
  <v type="int" >       23 </v>
  <v type="int" >       34 </v>
  <v type="int" >       29 </v>
  <v type="int" >       39 </v>
  <v type="int" >       40 </v>
  <v type="int" >        2 </v>
  <v type="int" >       10 </v>
  <v type="int" >        3 </v>
  <v type="int" >       48 </v>
  <v type="int" >       46 </v>
  <v type="int" >       55 </v>
  <v type="int" >       43 </v>
  <v type="int" >       45 </v>
  <v type="int" >       57 </v>
  <v type="int" >       52 </v>
  <v type="int" >       58 </v>
  <v type="int" >       16 </v>
  <v type="int" >       18 </v>
  <v type="int" >       15 </v>
  <v type="int" >       19 </v>
  <v type="int" >       13 </v>
  <v type="int" >       20 </v>
  <v type="int" >       25 </v>
  <v type="int" >       22 </v>
  <v type="int" >       31 </v>
  <v type="int" >       32 </v>
  <v type="int" >       33 </v>
  <v type="int" >       36 </v>
  <v type="int" >       30 </v>
  <v type="int" >       35 </v>
  <v type="int" >       42 </v>
  <v type="int" >       37 </v>
  <v type="int" >        8 </v>
  <v type="int" >       47 </v>
  <v type="int" >       44 </v>
  <v type="int" >       54 </v>
  <v type="int" >       53 </v>
  <v type="int" >        7 </v>
  <v type="int" >        4 </v>
  <v type="int" >       11 </v>
  <v type="int" >       12 </v>
  <v type="int" >       26 </v>
  <v type="int" >       21 </v>
  <v type="int" >       28 </v>
  <v type="int" >       27 </v>
  <v type="int" >       41 </v>
  <v type="int" >       38 </v>
  <v type="int" >        6 </v>
 </varray>
 <kpoints>
  <generation param="Gamma">
   <v type="int" name="divisions">       2        2        2 </v>
   <v name="usershift">      0.00000000       0.00000000       0.00000000 </v>
   <v name="genvec1">      0.50000000       0.00000000       0.00000000 </v>
   <v name="genvec2">      0.00000000       0.50000000       0.00000000 </v>
   <v name="genvec3">      0.00000000       0.00000000       0.50000000 </v>
   <v name="shift">      0.00000000       0.00000000       0.00000000 </v>
  </generation>
  <varray name="kpointlist" >
   <v>       0.00000000       0.00000000       0.00000000 </v>
   <v>       0.50000000       0.00000000       0.00000000 </v>
   <v>       0.00000000       0.50000000       0.00000000 </v>
   <v>       0.50000000       0.50000000       0.00000000 </v>
   <v>       0.00000000       0.00000000       0.50000000 </v>
   <v>       0.50000000       0.00000000       0.50000000 </v>
   <v>       0.00000000       0.50000000       0.50000000 </v>
   <v>       0.50000000       0.50000000       0.50000000 </v>
  </varray>
  <varray name="weights" >
   <v>       0.12500000 </v>
   <v>       0.12500000 </v>
   <v>       0.12500000 </v>
   <v>       0.12500000 </v>
   <v>       0.12500000 </v>
   <v>       0.12500000 </v>
   <v>       0.12500000 </v>
   <v>       0.12500000 </v>
  </varray>
  <varray name="tetrahedronlist"  type="int" >
   <v type="int" >        2        1        2        4        5 </v>
   <v type="int" >        2        1        3        4        5 </v>
   <v type="int" >        2        3        4        5        7 </v>
   <v type="int" >        2        2        4        5        6 </v>
   <v type="int" >        2        4        5        6        8 </v>
   <v type="int" >        2        4        5        7        8 </v>
   <v type="int" >        2        1        2        3        6 </v>
   <v type="int" >        2        2        3        4        6 </v>
   <v type="int" >        2        3        4        6        8 </v>
   <v type="int" >        2        1        3        5        6 </v>
   <v type="int" >        2        3        5        6        7 </v>
   <v type="int" >        2        3        6        7        8 </v>
   <v type="int" >        2        2        3        4        7 </v>
   <v type="int" >        2        1        2        3        7 </v>
   <v type="int" >        2        1        2        5        7 </v>
   <v type="int" >        2        2        4        7        8 </v>
   <v type="int" >        2        2        6        7        8 </v>
   <v type="int" >        2        2        5        6        7 </v>
   <v type="int" >        2        1        3        4        8 </v>
   <v type="int" >        2        1        2        4        8 </v>
   <v type="int" >        2        1        2        6        8 </v>
   <v type="int" >        2        1        3        7        8 </v>
   <v type="int" >        2        1        5        7        8 </v>
   <v type="int" >        2        1        5        6        8 </v>
  </varray>
  <i name="volumeweight">      0.02083333 </i>
 </kpoints>
 <parameters>
  <separator name="general" >
   <i type="string" name="SYSTEM">La2O2S</i>
   <i type="logical" name="LCOMPAT"> F  </i>
  </separator>
  <separator name="electronic" >
   <i type="string" name="PREC">normal</i>
   <i name="ENMAX">    600.00000000</i>
   <i name="ENAUG">    900.00000000</i>
   <i name="EDIFF">      0.00000100</i>
   <i type="int" name="IALGO">    38</i>
   <i type="int" name="IWAVPR">    11</i>
   <i type="int" name="NBANDS">   280</i>
   <i name="NELECT">    456.00000000</i>
   <i type="int" name="TURBO">     0</i>
   <i type="int" name="IRESTART">     0</i>
   <i type="int" name="NREBOOT">     0</i>
   <i type="int" name="NMIN">     0</i>
   <i name="EREF">      0.00000000</i>
   <separator name="electronic smearing" >
    <i type="int" name="ISMEAR">    -5</i>
    <i name="SIGMA">      0.20000000</i>
    <i name="KSPACING">      0.50000000</i>
    <i type="logical" name="KGAMMA"> T  </i>
   </separator>
   <separator name="electronic projectors" >
    <i type="logical" name="LREAL"> F  </i>
    <v name="ROPT">      0.00000000      0.00000000      0.00000000      0.00000000      0.00000000</v>
    <i type="int" name="LMAXPAW">  -100</i>
    <i type="int" name="LMAXMIX">     2</i>
    <i type="logical" name="NLSPLINE"> F  </i>
   </separator>
   <separator name="electronic startup" >
    <i type="int" name="ISTART">     0</i>
    <i type="int" name="ICHARG">     2</i>
    <i type="int" name="INIWAV">     1</i>
   </separator>
   <separator name="electronic spin" >
    <i type="int" name="ISPIN">     1</i>
    <i type="logical" name="LNONCOLLINEAR"> F  </i>
    <v name="MAGMOM">      1.00000000      1.00000000      1.00000000      1.00000000      1.00000000      1.00000000      1.00000000      1.00000000      1.00000000      1.00000000      1.00000000      1.00000000      1.00000000      1.00000000      1.00000000      1.00000000      1.00000000      1.00000000      1.00000000      1.00000000
      1.00000000      1.00000000      1.00000000      1.00000000      1.00000000      1.00000000      1.00000000      1.00000000      1.00000000      1.00000000      1.00000000      1.00000000      1.00000000      1.00000000      1.00000000      1.00000000      1.00000000      1.00000000      1.00000000      1.00000000
      1.00000000      1.00000000      1.00000000      1.00000000      1.00000000      1.00000000      1.00000000      1.00000000      1.00000000      1.00000000      1.00000000      1.00000000      1.00000000      1.00000000      1.00000000      1.00000000      1.00000000      1.00000000</v>
    <i name="NUPDOWN">     -1.00000000</i>
    <i type="logical" name="LSORBIT"> F  </i>
    <v name="SAXIS">      0.00000000      0.00000000      1.00000000</v>
    <i type="logical" name="LSPIRAL"> F  </i>
    <v name="QSPIRAL">      0.00000000      0.00000000      0.00000000</v>
    <i type="logical" name="LZEROZ"> F  </i>
   </separator>
   <separator name="electronic exchange-correlation" >
    <i type="logical" name="LASPH"> F  </i>
    <i type="logical" name="LMETAGGA"> F  </i>
   </separator>
   <separator name="electronic convergence" >
    <i type="int" name="NELM">    60</i>
    <i type="int" name="NELMDL">    -5</i>
    <i type="int" name="NELMIN">     4</i>
    <i name="ENINI">    600.00000000</i>
    <separator name="electronic convergence detail" >
     <i type="logical" name="LDIAG"> T  </i>
     <i type="logical" name="LSUBROT"> F  </i>
     <i name="WEIMIN">      0.00100000</i>
     <i name="EBREAK">      0.00000000</i>
     <i name="DEPER">      0.30000000</i>
     <i type="int" name="NRMM">     4</i>
     <i name="TIME">      0.40000000</i>
    </separator>
   </separator>
   <separator name="electronic mixer" >
    <i name="AMIX">      0.40000000</i>
    <i name="BMIX">      1.00000000</i>
    <i name="AMIN">      0.10000000</i>
    <i name="AMIX_MAG">      1.60000000</i>
    <i name="BMIX_MAG">      1.00000000</i>
    <separator name="electronic mixer details" >
     <i type="int" name="IMIX">     4</i>
     <i type="logical" name="MIXFIRST"> F  </i>
     <i type="int" name="MAXMIX">   -45</i>
     <i name="WC">    100.00000000</i>
     <i type="int" name="INIMIX">     1</i>
     <i type="int" name="MIXPRE">     1</i>
     <i type="int" name="MREMOVE">     5</i>
    </separator>
   </separator>
   <separator name="electronic dipolcorrection" >
    <i type="logical" name="LDIPOL"> F  </i>
    <i type="logical" name="LMONO"> F  </i>
    <i type="int" name="IDIPOL">     0</i>
    <i name="EPSILON">      1.00000000</i>
    <v name="DIPOL">   -100.00000000   -100.00000000   -100.00000000</v>
    <i name="EFIELD">      0.00000000</i>
   </separator>
  </separator>
  <separator name="grids" >
   <i type="int" name="NGX">    70</i>
   <i type="int" name="NGY">    60</i>
   <i type="int" name="NGZ">    70</i>
   <i type="int" name="NGXF">   140</i>
   <i type="int" name="NGYF">   120</i>
   <i type="int" name="NGZF">   140</i>
   <i type="logical" name="ADDGRID"> F  </i>
  </separator>
  <separator name="ionic" >
   <i type="int" name="NSW">   200</i>
   <i type="int" name="IBRION">     2</i>
   <i type="int" name="MDALGO">     0</i>
   <i type="int" name="ISIF">     3</i>
   <i name="PSTRESS">      0.00000000</i>
   <i name="EDIFFG">     -0.01000000</i>
   <i type="int" name="NFREE">    10</i>
   <i name="POTIM">      0.50000000</i>
   <i name="SMASS">     -3.00000000</i>
   <i name="SCALEE">      1.00000000</i>
  </separator>
  <separator name="ionic md" >
   <i name="TEBEG">      0.00010000</i>
   <i name="TEEND">      0.00010000</i>
   <i type="int" name="NBLOCK">     1</i>
   <i type="int" name="KBLOCK">   200</i>
   <i type="int" name="NPACO">   256</i>
   <i name="APACO">     16.00000000</i>
  </separator>
  <separator name="symmetry" >
   <i type="int" name="ISYM">     2</i>
   <i name="SYMPREC">      0.00001000</i>
  </separator>
  <separator name="dos" >
   <i type="int" name="LORBIT">     0</i>
   <v name="RWIGS">     -1.00000000     -1.00000000     -1.00000000     -1.00000000     -1.00000000</v>
   <i type="int" name="NEDOS">   301</i>
   <i name="EMIN">     10.00000000</i>
   <i name="EMAX">    -10.00000000</i>
   <i name="EFERMI">      0.00000000</i>
  </separator>
  <separator name="writing" >
   <i type="int" name="NWRITE">     2</i>
   <i type="logical" name="LWAVE"> F  </i>
   <i type="logical" name="LDOWNSAMPLE"> F  </i>
   <i type="logical" name="LCHARG"> F  </i>
   <i type="logical" name="LPARD"> F  </i>
   <i type="logical" name="LVTOT"> F  </i>
   <i type="logical" name="LVHAR"> F  </i>
   <i type="logical" name="LELF"> F  </i>
   <i type="logical" name="LOPTICS"> F  </i>
   <v name="STM">      0.00000000      0.00000000      0.00000000      0.00000000      0.00000000      0.00000000      0.00000000</v>
  </separator>
  <separator name="performance" >
   <i type="int" name="NPAR">    28</i>
   <i type="int" name="NSIM">     4</i>
   <i type="int" name="NBLK">    -1</i>
   <i type="logical" name="LPLANE"> T  </i>
   <i type="logical" name="LSCALAPACK"> T  </i>
   <i type="logical" name="LSCAAWARE"> F  </i>
   <i type="logical" name="LSCALU"> F  </i>
   <i type="logical" name="LASYNC"> F  </i>
   <i type="logical" name="LORBITALREAL"> F  </i>
  </separator>
  <separator name="miscellaneous" >
   <i type="int" name="IDIOT">     3</i>
   <i type="int" name="ISPECIAL">     0</i>
   <i type="logical" name="LMUSIC"> F  </i>
   <v name="POMASS">      7.01000000     24.30500000    208.98000000     32.06600000     16.00000000</v>
   <v name="DARWINR">      0.00000000      0.00000000      0.00000000      0.00000000      0.00000000</v>
   <v name="DARWINV">      1.00000000      1.00000000      1.00000000      1.00000000      1.00000000</v>
   <i type="logical" name="LCORR"> T  </i>
  </separator>
  <i type="logical" name="GGA_COMPAT"> T  </i>
  <i type="logical" name="LBERRY"> F  </i>
  <i type="int" name="ICORELEVEL">     0</i>
  <i type="logical" name="LDAU"> F  </i>
  <i type="int" name="I_CONSTRAINED_M">     0</i>
  <separator name="electronic exchange-correlation" >
   <i type="string" name="GGA">--</i>
   <i type="int" name="VOSKOWN">     0</i>
   <i type="logical" name="LHFCALC"> F  </i>
   <i type="string" name="PRECFOCK"></i>
   <i type="logical" name="LSYMGRAD"> F  </i>
   <i type="logical" name="LHFONE"> F  </i>
   <i type="logical" name="LRHFCALC"> F  </i>
   <i type="logical" name="LTHOMAS"> F  </i>
   <i type="logical" name="LMODELHF"> F  </i>
   <i name="ENCUT4O">     -1.00000000</i>
   <i type="int" name="EXXOEP">     0</i>
   <i type="int" name="FOURORBIT">     0</i>
   <i name="AEXX">      0.00000000</i>
   <i name="HFALPHA">      0.00000000</i>
   <i name="MCALPHA">      0.00000000</i>
   <i name="ALDAX">      1.00000000</i>
   <i name="AGGAX">      1.00000000</i>
   <i name="ALDAC">      1.00000000</i>
   <i name="AGGAC">      1.00000000</i>
   <i type="int" name="NKREDX">     1</i>
   <i type="int" name="NKREDY">     1</i>
   <i type="int" name="NKREDZ">     1</i>
   <i type="logical" name="SHIFTRED"> F  </i>
   <i type="logical" name="ODDONLY"> F  </i>
   <i type="logical" name="EVENONLY"> F  </i>
   <i type="int" name="LMAXFOCK">     0</i>
   <i type="int" name="NMAXFOCKAE">     0</i>
   <i type="logical" name="LFOCKAEDFT"> F  </i>
   <i name="HFSCREEN">      0.00000000</i>
   <i name="HFSCREENC">      0.00000000</i>
   <i type="int" name="NBANDSGWLOW">     0</i>
  </separator>
  <separator name="vdW DFT" >
   <i type="logical" name="LUSE_VDW"> F  </i>
   <i name="Zab_VDW">     -0.84910000</i>
   <i name="PARAM1">      0.12340000</i>
   <i name="PARAM2">      1.00000000</i>
   <i name="PARAM3">      0.00000000</i>
  </separator>
  <separator name="model GW" >
   <i type="int" name="MODEL_GW">     0</i>
   <i name="MODEL_EPS0">     12.38119177</i>
   <i name="MODEL_ALPHA">      1.00000000</i>
  </separator>
  <separator name="linear response parameters" >
   <i type="logical" name="LEPSILON"> F  </i>
   <i type="logical" name="LRPA"> F  </i>
   <i type="logical" name="LNABLA"> F  </i>
   <i type="logical" name="LVEL"> F  </i>
   <i type="int" name="KINTER">     0</i>
   <i name="CSHIFT">      0.10000000</i>
   <i name="OMEGAMAX">     -1.00000000</i>
   <i name="DEG_THRESHOLD">      0.00200000</i>
   <i name="RTIME">     -0.10000000</i>
   <i name="WPLASMAI">      0.00000000</i>
   <v name="DFIELD">      0.00000000      0.00000000      0.00000000</v>
   <v name="WPLASMA">      0.00000000      0.00000000      0.00000000      0.00000000      0.00000000      0.00000000      0.00000000      0.00000000      0.00000000</v>
  </separator>
  <separator name="orbital magnetization" >
   <i type="logical" name="NUCIND"> F  </i>
   <v name="MAGPOS">      0.00000000      0.00000000      0.00000000</v>
   <i type="logical" name="LNICSALL"> T  </i>
   <i type="logical" name="ORBITALMAG"> F  </i>
   <i type="logical" name="LMAGBLOCH"> F  </i>
   <i type="logical" name="LCHIMAG"> F  </i>
   <i type="logical" name="LGAUGE"> T  </i>
   <i type="int" name="MAGATOM">     0</i>
   <v name="MAGDIPOL">      0.00000000      0.00000000      0.00000000</v>
   <v name="AVECCONST">      0.00000000      0.00000000      0.00000000</v>
  </separator>
  <separator name="response functions" >
   <i type="logical" name="LADDER"> F  </i>
   <i type="logical" name="LRPAFORCE"> F  </i>
   <i type="logical" name="LFXC"> F  </i>
   <i type="logical" name="LHARTREE"> T  </i>
   <i type="int" name="IBSE">     0</i>
   <v type="int" name="KPOINT">    -1     0     0     0</v>
   <i type="logical" name="LTCTE"> F  </i>
   <i type="logical" name="LTETE"> F  </i>
   <i type="logical" name="LTRIPLET"> F  </i>
   <i type="logical" name="LFXCEPS"> F  </i>
   <i type="logical" name="LFXHEG"> F  </i>
   <i type="int" name="NATURALO">     2</i>
   <i type="logical" name="L2ORDER"> F  </i>
   <i type="logical" name="LMP2LT"> F  </i>
   <i type="logical" name="LUSEW"> F  </i>
   <i name="ENCUTGW">     -2.00000000</i>
   <i name="ENCUTGWSOFT">     -2.00000000</i>
   <i name="ENCUTLF">     -1.00000000</i>
   <i type="int" name="LMAXMP2">    -1</i>
   <i name="SCISSOR">      0.00000000</i>
   <i type="int" name="NOMEGA">     0</i>
   <i type="int" name="NOMEGAR">     0</i>
   <i type="int" name="NBANDSGW">    -1</i>
   <i type="int" name="NBANDSO">    -1</i>
   <i type="int" name="NBANDSV">    -1</i>
   <i type="int" name="NELM">     1</i>
   <i type="int" name="NELMHF">     1</i>
   <i type="int" name="DIM">     3</i>
   <i type="int" name="ANTIRES">     0</i>
   <i name="OMEGAMAX">    -30.00000000</i>
   <i name="OMEGAMIN">    -30.00000000</i>
   <i name="OMEGATL">   -200.00000000</i>
   <i type="int" name="OMEGAGRID">   140</i>
   <i name="CSHIFT">     -0.10000000</i>
   <i type="logical" name="SELFENERGY"> F  </i>
   <i type="logical" name="LSPECTRAL"> F  </i>
   <i type="logical" name="LSPECTRALGW"> F  </i>
   <i type="logical" name="LSINGLES"> F  </i>
   <i type="logical" name="LFERMIGW"> F  </i>
   <i type="logical" name="ODDONLYGW"> F  </i>
   <i type="logical" name="EVENONLYGW"> F  </i>
   <i type="int" name="NKREDLFX">     1</i>
   <i type="int" name="NKREDLFY">     1</i>
   <i type="int" name="NKREDLFZ">     1</i>
   <i type="int" name="MAXMEM">  2800</i>
   <i type="int" name="TELESCOPE">     0</i>
   <i type="int" name="TAUPAR">     1</i>
   <i type="int" name="OMEGAPAR">    -1</i>
   <i name="LAMBDA">      1.00000000</i>
  </separator>
  <separator name="External order field" >
   <i name="OFIELD_KAPPA">      0.00000000</i>
   <v name="OFIELD_K">      0.00000000      0.00000000      0.00000000</v>
   <i name="OFIELD_Q6_NEAR">      0.00000000</i>
   <i name="OFIELD_Q6_FAR">      0.00000000</i>
   <i name="OFIELD_A">      0.00000000</i>
  </separator>
 </parameters>
 <atominfo>
  <atoms>      58 </atoms>
  <types>       5 </types>
  <array name="atoms" >
   <dimension dim="1">ion</dimension>
   <field type="string">element</field>
   <field type="int">atomtype</field>
   <set>
    <rc><c>Li</c><c>   1</c></rc>
    <rc><c>Li</c><c>   1</c></rc>
    <rc><c>Li</c><c>   1</c></rc>
    <rc><c>Li</c><c>   1</c></rc>
    <rc><c>Mg</c><c>   2</c></rc>
    <rc><c>Mg</c><c>   2</c></rc>
    <rc><c>Mg</c><c>   2</c></rc>
    <rc><c>Mg</c><c>   2</c></rc>
    <rc><c>Mg</c><c>   2</c></rc>
    <rc><c>Mg</c><c>   2</c></rc>
    <rc><c>Bi</c><c>   3</c></rc>
    <rc><c>Bi</c><c>   3</c></rc>
    <rc><c>Bi</c><c>   3</c></rc>
    <rc><c>Bi</c><c>   3</c></rc>
    <rc><c>Bi</c><c>   3</c></rc>
    <rc><c>Bi</c><c>   3</c></rc>
    <rc><c>Bi</c><c>   3</c></rc>
    <rc><c>Bi</c><c>   3</c></rc>
    <rc><c>Bi</c><c>   3</c></rc>
    <rc><c>Bi</c><c>   3</c></rc>
    <rc><c>Bi</c><c>   3</c></rc>
    <rc><c>Bi</c><c>   3</c></rc>
    <rc><c>Bi</c><c>   3</c></rc>
    <rc><c>Bi</c><c>   3</c></rc>
    <rc><c>Bi</c><c>   3</c></rc>
    <rc><c>Bi</c><c>   3</c></rc>
    <rc><c>S </c><c>   4</c></rc>
    <rc><c>S </c><c>   4</c></rc>
    <rc><c>S </c><c>   4</c></rc>
    <rc><c>S </c><c>   4</c></rc>
    <rc><c>S </c><c>   4</c></rc>
    <rc><c>S </c><c>   4</c></rc>
    <rc><c>S </c><c>   4</c></rc>
    <rc><c>S </c><c>   4</c></rc>
    <rc><c>S </c><c>   4</c></rc>
    <rc><c>S </c><c>   4</c></rc>
    <rc><c>S </c><c>   4</c></rc>
    <rc><c>S </c><c>   4</c></rc>
    <rc><c>S </c><c>   4</c></rc>
    <rc><c>S </c><c>   4</c></rc>
    <rc><c>S </c><c>   4</c></rc>
    <rc><c>S </c><c>   4</c></rc>
    <rc><c>O </c><c>   5</c></rc>
    <rc><c>O </c><c>   5</c></rc>
    <rc><c>O </c><c>   5</c></rc>
    <rc><c>O </c><c>   5</c></rc>
    <rc><c>O </c><c>   5</c></rc>
    <rc><c>O </c><c>   5</c></rc>
    <rc><c>O </c><c>   5</c></rc>
    <rc><c>O </c><c>   5</c></rc>
    <rc><c>O </c><c>   5</c></rc>
    <rc><c>O </c><c>   5</c></rc>
    <rc><c>O </c><c>   5</c></rc>
    <rc><c>O </c><c>   5</c></rc>
    <rc><c>O </c><c>   5</c></rc>
    <rc><c>O </c><c>   5</c></rc>
    <rc><c>O </c><c>   5</c></rc>
    <rc><c>O </c><c>   5</c></rc>
   </set>
  </array>
  <array name="atomtypes" >
   <dimension dim="1">type</dimension>
   <field type="int">atomspertype</field>
   <field type="string">element</field>
   <field>mass</field>
   <field>valence</field>
   <field type="string">pseudopotential</field>
   <set>
    <rc><c>   4</c><c>Li</c><c>      7.01000000</c><c>      3.00000000</c><c>  PAW_PBE Li_sv 10Sep2004               </c></rc>
    <rc><c>   6</c><c>Mg</c><c>     24.30500000</c><c>      2.00000000</c><c>  PAW_PBE Mg 13Apr2007                  </c></rc>
    <rc><c>  16</c><c>Bi</c><c>    208.98000000</c><c>     15.00000000</c><c>  PAW_PBE Bi_d 06Sep2000                </c></rc>
    <rc><c>  16</c><c>S </c><c>     32.06600000</c><c>      6.00000000</c><c>  PAW_PBE S 06Sep2000                   </c></rc>
    <rc><c>  16</c><c>O </c><c>     16.00000000</c><c>      6.00000000</c><c>  PAW_PBE O 08Apr2002                   </c></rc>
   </set>
  </array>
 </atominfo>
 <structure name="initialpos" >
  <crystal>
   <varray name="basis" >
    <v>      11.17850000       0.00000000       0.00000000 </v>
    <v>       0.00000000       9.57460000       0.00000000 </v>
    <v>       0.00000000       0.00000000      11.18240000 </v>
   </varray>
   <i name="volume">   1196.84853820 </i>
   <varray name="rec_basis" >
    <v>       0.08945744       0.00000000       0.00000000 </v>
    <v>       0.00000000       0.10444301       0.00000000 </v>
    <v>       0.00000000       0.00000000       0.08942624 </v>
   </varray>
  </crystal>
  <varray name="positions" >
   <v>       0.62539000       0.99984000       0.43687000 </v>
   <v>       0.87461000       0.00017000       0.18687000 </v>
   <v>       0.37461000       0.00017000       0.68687000 </v>
   <v>       0.87539000       0.00017000       0.93687000 </v>
   <v>       0.62461000       0.99984000       0.18687000 </v>
   <v>       0.12539000       0.99984000       0.93687000 </v>
   <v>       0.12461000       0.99984000       0.68687000 </v>
   <v>       0.62539000       0.99984000       0.93687000 </v>
   <v>       0.62461000       0.99984000       0.68687000 </v>
   <v>       0.87461000       0.00017000       0.68687000 </v>
   <v>       0.00013000       0.29519000       0.06281000 </v>
   <v>       0.25013000       0.70481000       0.06281000 </v>
   <v>       0.24987000       0.29519000       0.31282000 </v>
   <v>       0.49987000       0.70481000       0.31282000 </v>
   <v>       0.50013000       0.29519000       0.06281000 </v>
   <v>       0.75013000       0.70481000       0.06281000 </v>
   <v>       0.74987000       0.29519000       0.31282000 </v>
   <v>       0.99987000       0.70481000       0.31282000 </v>
   <v>       0.00013000       0.29519000       0.56281000 </v>
   <v>       0.25013000       0.70481000       0.56281000 </v>
   <v>       0.24987000       0.29519000       0.81282000 </v>
   <v>       0.49987000       0.70481000       0.81282000 </v>
   <v>       0.50013000       0.29519000       0.56281000 </v>
   <v>       0.75013000       0.70481000       0.56281000 </v>
   <v>       0.74987000       0.29519000       0.81282000 </v>
   <v>       0.99987000       0.70481000       0.81282000 </v>
   <v>       0.25005000       0.32677000       0.06286000 </v>
   <v>       0.00005000       0.67323000       0.06286000 </v>
   <v>       0.49995000       0.32677000       0.31286000 </v>
   <v>       0.24995000       0.67323000       0.31286000 </v>
   <v>       0.75005000       0.32677000       0.06286000 </v>
   <v>       0.50005000       0.67323000       0.06286000 </v>
   <v>       0.99995000       0.32677000       0.31286000 </v>
   <v>       0.74995000       0.67323000       0.31286000 </v>
   <v>       0.25005000       0.32677000       0.56286000 </v>
   <v>       0.00005000       0.67323000       0.56286000 </v>
   <v>       0.49995000       0.32677000       0.81286000 </v>
   <v>       0.24995000       0.67323000       0.81286000 </v>
   <v>       0.75005000       0.32677000       0.56286000 </v>
   <v>       0.50005000       0.67323000       0.56286000 </v>
   <v>       0.99995000       0.32677000       0.81286000 </v>
   <v>       0.74995000       0.67323000       0.81286000 </v>
   <v>       0.49987000       0.07798000       0.06246000 </v>
   <v>       0.24987000       0.92202000       0.06246000 </v>
   <v>       0.25013000       0.07798000       0.31246000 </v>
   <v>       0.00013000       0.92202000       0.31246000 </v>
   <v>       0.99987000       0.07798000       0.06246000 </v>
   <v>       0.74987000       0.92202000       0.06246000 </v>
   <v>       0.75013000       0.07798000       0.31246000 </v>
   <v>       0.50013000       0.92202000       0.31246000 </v>
   <v>       0.49987000       0.07798000       0.56246000 </v>
   <v>       0.24987000       0.92202000       0.56246000 </v>
   <v>       0.25013000       0.07798000       0.81246000 </v>
   <v>       0.00013000       0.92202000       0.81246000 </v>
   <v>       0.99987000       0.07798000       0.56246000 </v>
   <v>       0.74987000       0.92202000       0.56246000 </v>
   <v>       0.75013000       0.07798000       0.81246000 </v>
   <v>       0.50013000       0.92202000       0.81246000 </v>
  </varray>
 </structure>
 <calculation>
  <scstep>
   <time name="dav">   60.51   60.78</time>
   <time name="total">   60.60   60.87</time>
   <energy>
    <i name="alphaZ">   1054.17224280 </i>
    <i name="ewald"> -30143.65458821 </i>
    <i name="hartreedc"> -12735.11468752 </i>
    <i name="XCdc">   1173.66204562 </i>
    <i name="pawpsdc">  36541.05238669 </i>
    <i name="pawaedc"> -35795.85877930 </i>
    <i name="eentropy">      0.00000000 </i>
    <i name="bandstr">   1907.53978558 </i>
    <i name="atom">  43643.51795008 </i>
    <i name="e_fr_energy">   5645.31635575 </i>
    <i name="e_wo_entrp">   5645.31635575 </i>
    <i name="e_0_energy">   5645.31635575 </i>
   </energy>
  </scstep>
  <scstep>
   <time name="dav">   61.71   62.21</time>
   <time name="total">   61.72   62.22</time>
   <energy>
    <i name="e_fr_energy">    729.06191455 </i>
    <i name="e_wo_entrp">    729.06191455 </i>
    <i name="e_0_energy">    729.06191455 </i>
   </energy>
  </scstep>
  <scstep>
   <time name="dav">   68.61   68.99</time>
   <time name="total">   68.61   68.99</time>
   <energy>
    <i name="e_fr_energy">   -240.88990884 </i>
    <i name="e_wo_entrp">   -240.88990884 </i>
    <i name="e_0_energy">   -240.88990884 </i>
   </energy>
  </scstep>
  <scstep>
   <time name="dav">   73.13   73.20</time>
   <time name="total">   73.13   73.20</time>
   <energy>
    <i name="e_fr_energy">   -327.33078740 </i>
    <i name="e_wo_entrp">   -327.33078740 </i>
    <i name="e_0_energy">   -327.33078740 </i>
   </energy>
  </scstep>
  <scstep>
   <time name="dav">   92.40   93.02</time>
   <time name="total">   93.11   93.73</time>
   <energy>
    <i name="e_fr_energy">   -333.01978045 </i>
    <i name="e_wo_entrp">   -333.01978045 </i>
    <i name="e_0_energy">   -333.01978045 </i>
   </energy>
  </scstep>
  <scstep>
   <time name="dav">   83.90   84.38</time>
   <time name="total">   84.69   85.17</time>
   <energy>
    <i name="e_fr_energy">   -281.30865335 </i>
    <i name="e_wo_entrp">   -281.30865335 </i>
    <i name="e_0_energy">   -281.30865335 </i>
   </energy>
  </scstep>
  <scstep>
   <time name="dav">   72.58   72.66</time>
   <time name="total">   73.35   73.44</time>
   <energy>
    <i name="e_fr_energy">   -287.22145174 </i>
    <i name="e_wo_entrp">   -287.22145174 </i>
    <i name="e_0_energy">   -287.22145174 </i>
   </energy>
  </scstep>
  <scstep>
   <time name="dav">   81.63   81.83</time>
   <time name="total">   82.41   82.61</time>
   <energy>
    <i name="e_fr_energy">   -281.35900202 </i>
    <i name="e_wo_entrp">   -281.35900202 </i>
    <i name="e_0_energy">   -281.35900202 </i>
   </energy>
  </scstep>
  <scstep>
   <time name="dav">   83.31   83.53</time>
   <time name="total">   84.10   84.33</time>
   <energy>
    <i name="e_fr_energy">   -285.70188371 </i>
    <i name="e_wo_entrp">   -285.70188371 </i>
    <i name="e_0_energy">   -285.70188371 </i>
   </energy>
  </scstep>
  <scstep>
   <time name="dav">   72.69   72.75</time>
   <time name="total">   73.48   73.54</time>
   <energy>
    <i name="e_fr_energy">   -279.45927327 </i>
    <i name="e_wo_entrp">   -279.45927327 </i>
    <i name="e_0_energy">   -279.45927327 </i>
   </energy>
  </scstep>
  <scstep>
   <time name="dav">   70.61   70.96</time>
   <time name="total">   71.39   71.75</time>
   <energy>
    <i name="e_fr_energy">   -279.71631640 </i>
    <i name="e_wo_entrp">   -279.71631640 </i>
    <i name="e_0_energy">   -279.71631640 </i>
   </energy>
  </scstep>
  <scstep>
   <time name="dav">   68.08   68.75</time>
   <time name="total">   68.88   69.55</time>
   <energy>
    <i name="e_fr_energy">   -279.45341808 </i>
    <i name="e_wo_entrp">   -279.45341808 </i>
    <i name="e_0_energy">   -279.45341808 </i>
   </energy>
  </scstep>
  <scstep>
   <time name="dav">   71.31   71.46</time>
   <time name="total">   72.09   72.25</time>
   <energy>
    <i name="e_fr_energy">   -279.25013817 </i>
    <i name="e_wo_entrp">   -279.25013817 </i>
    <i name="e_0_energy">   -279.25013817 </i>
   </energy>
  </scstep>
  <scstep>
   <time name="dav">   84.92   85.52</time>
   <time name="total">   85.71   86.30</time>
   <energy>
    <i name="e_fr_energy">   -278.95071247 </i>
    <i name="e_wo_entrp">   -278.95071247 </i>
    <i name="e_0_energy">   -278.95071247 </i>
   </energy>
  </scstep>
  <scstep>
   <time name="dav">   69.18   69.18</time>
   <time name="total">   69.96   69.96</time>
   <energy>
    <i name="e_fr_energy">   -278.91900678 </i>
    <i name="e_wo_entrp">   -278.91900678 </i>
    <i name="e_0_energy">   -278.91900678 </i>
   </energy>
  </scstep>
  <scstep>
   <time name="dav">   84.65   84.87</time>
   <time name="total">   85.43   85.66</time>
   <energy>
    <i name="e_fr_energy">   -278.89026141 </i>
    <i name="e_wo_entrp">   -278.89026141 </i>
    <i name="e_0_energy">   -278.89026141 </i>
   </energy>
  </scstep>
  <scstep>
   <time name="dav">   67.30   67.70</time>
   <time name="total">   68.08   68.48</time>
   <energy>
    <i name="e_fr_energy">   -278.84136061 </i>
    <i name="e_wo_entrp">   -278.84136061 </i>
    <i name="e_0_energy">   -278.84136061 </i>
   </energy>
  </scstep>
  <scstep>
   <time name="dav">   82.79   83.14</time>
   <time name="total">   83.57   83.93</time>
   <energy>
    <i name="e_fr_energy">   -278.80614224 </i>
    <i name="e_wo_entrp">   -278.80614224 </i>
    <i name="e_0_energy">   -278.80614224 </i>
   </energy>
  </scstep>
  <scstep>
   <time name="dav">   69.44   69.98</time>
   <time name="total">   70.22   70.77</time>
   <energy>
    <i name="e_fr_energy">   -278.80786146 </i>
    <i name="e_wo_entrp">   -278.80786146 </i>
    <i name="e_0_energy">   -278.80786146 </i>
   </energy>
  </scstep>
  <scstep>
   <time name="dav">   79.68   80.29</time>
   <time name="total">   80.46   81.08</time>
   <energy>
    <i name="e_fr_energy">   -278.80738768 </i>
    <i name="e_wo_entrp">   -278.80738768 </i>
    <i name="e_0_energy">   -278.80738768 </i>
   </energy>
  </scstep>
  <scstep>
   <time name="dav">   80.31   80.85</time>
   <time name="total">   81.09   81.64</time>
   <energy>
    <i name="e_fr_energy">   -278.82038465 </i>
    <i name="e_wo_entrp">   -278.82038465 </i>
    <i name="e_0_energy">   -278.82038465 </i>
   </energy>
  </scstep>
  <scstep>
   <time name="dav">   70.22   70.22</time>
   <time name="total">   71.01   71.00</time>
   <energy>
    <i name="e_fr_energy">   -278.81580257 </i>
    <i name="e_wo_entrp">   -278.81580257 </i>
    <i name="e_0_energy">   -278.81580257 </i>
   </energy>
  </scstep>
  <scstep>
   <time name="dav">   79.71   79.74</time>
   <time name="total">   80.50   80.53</time>
   <energy>
    <i name="e_fr_energy">   -278.80794523 </i>
    <i name="e_wo_entrp">   -278.80794523 </i>
    <i name="e_0_energy">   -278.80794523 </i>
   </energy>
  </scstep>
  <scstep>
   <time name="dav">   70.12   70.42</time>
   <time name="total">   70.91   71.21</time>
   <energy>
    <i name="e_fr_energy">   -278.80915932 </i>
    <i name="e_wo_entrp">   -278.80915932 </i>
    <i name="e_0_energy">   -278.80915932 </i>
   </energy>
  </scstep>
  <scstep>
   <time name="dav">   66.42   66.40</time>
   <time name="total">   67.21   67.19</time>
   <energy>
    <i name="e_fr_energy">   -278.80614139 </i>
    <i name="e_wo_entrp">   -278.80614139 </i>
    <i name="e_0_energy">   -278.80614139 </i>
   </energy>
  </scstep>
  <scstep>
   <time name="dav">   68.81   68.96</time>
   <time name="total">   69.60   69.75</time>
   <energy>
    <i name="e_fr_energy">   -278.80562758 </i>
    <i name="e_wo_entrp">   -278.80562758 </i>
    <i name="e_0_energy">   -278.80562758 </i>
   </energy>
  </scstep>
  <scstep>
   <time name="dav">   72.37   72.58</time>
   <time name="total">   73.16   73.37</time>
   <energy>
    <i name="e_fr_energy">   -278.80460683 </i>
    <i name="e_wo_entrp">   -278.80460683 </i>
    <i name="e_0_energy">   -278.80460683 </i>
   </energy>
  </scstep>
  <scstep>
   <time name="dav">   73.37   73.35</time>
   <time name="total">   74.16   74.14</time>
   <energy>
    <i name="e_fr_energy">   -278.80634260 </i>
    <i name="e_wo_entrp">   -278.80634260 </i>
    <i name="e_0_energy">   -278.80634260 </i>
   </energy>
  </scstep>
  <scstep>
   <time name="dav">   66.01   66.36</time>
   <time name="total">   66.80   67.15</time>
   <energy>
    <i name="e_fr_energy">   -278.80644545 </i>
    <i name="e_wo_entrp">   -278.80644545 </i>
    <i name="e_0_energy">   -278.80644545 </i>
   </energy>
  </scstep>
  <scstep>
   <time name="dav">   51.06   51.60</time>
   <time name="total">   51.84   52.39</time>
   <energy>
    <i name="e_fr_energy">   -278.80616934 </i>
    <i name="e_wo_entrp">   -278.80616934 </i>
    <i name="e_0_energy">   -278.80616934 </i>
   </energy>
  </scstep>
  <scstep>
   <time name="dav">   60.39   60.82</time>
   <time name="total">   61.18   61.61</time>
   <energy>
    <i name="e_fr_energy">   -278.80566922 </i>
    <i name="e_wo_entrp">   -278.80566922 </i>
    <i name="e_0_energy">   -278.80566922 </i>
   </energy>
  </scstep>
  <scstep>
   <time name="dav">   51.19   51.22</time>
   <time name="total">   51.99   52.02</time>
   <energy>
    <i name="e_fr_energy">   -278.80563649 </i>
    <i name="e_wo_entrp">   -278.80563649 </i>
    <i name="e_0_energy">   -278.80563649 </i>
   </energy>
  </scstep>
  <scstep>
   <time name="dav">   43.26   43.61</time>
   <time name="total">   44.05   44.40</time>
   <energy>
    <i name="e_fr_energy">   -278.80561793 </i>
    <i name="e_wo_entrp">   -278.80561793 </i>
    <i name="e_0_energy">   -278.80561793 </i>
   </energy>
  </scstep>
  <scstep>
   <time name="dav">   43.47   43.71</time>
   <time name="total">   44.27   44.50</time>
   <energy>
    <i name="e_fr_energy">   -278.80561914 </i>
    <i name="e_wo_entrp">   -278.80561914 </i>
    <i name="e_0_energy">   -278.80561914 </i>
   </energy>
  </scstep>
  <scstep>
   <time name="dav">   43.78   43.86</time>
   <time name="total">   44.58   44.65</time>
   <energy>
    <i name="e_fr_energy">   -278.80563948 </i>
    <i name="e_wo_entrp">   -278.80563948 </i>
    <i name="e_0_energy">   -278.80563948 </i>
   </energy>
  </scstep>
  <scstep>
   <time name="dav">   43.52   43.57</time>
   <time name="total">   44.32   44.38</time>
   <energy>
    <i name="e_fr_energy">   -278.80564090 </i>
    <i name="e_wo_entrp">   -278.80564090 </i>
    <i name="e_0_energy">   -278.80564090 </i>
   </energy>
  </scstep>
  <scstep>
   <time name="dav">   43.38   43.44</time>
   <time name="total">   44.17   44.23</time>
   <energy>
    <i name="e_fr_energy">   -278.80564593 </i>
    <i name="e_wo_entrp">   -278.80564593 </i>
    <i name="e_0_energy">   -278.80564593 </i>
   </energy>
  </scstep>
  <scstep>
   <time name="dav">   43.52   43.63</time>
   <time name="total">   44.32   44.43</time>
   <energy>
    <i name="e_fr_energy">   -278.80566040 </i>
    <i name="e_wo_entrp">   -278.80566040 </i>
    <i name="e_0_energy">   -278.80566040 </i>
   </energy>
  </scstep>
  <scstep>
   <time name="dav">   43.13   43.62</time>
   <time name="total">   43.93   44.42</time>
   <energy>
    <i name="e_fr_energy">   -278.80566436 </i>
    <i name="e_wo_entrp">   -278.80566436 </i>
    <i name="e_0_energy">   -278.80566436 </i>
   </energy>
  </scstep>
  <scstep>
   <time name="dav">   43.00   43.72</time>
   <time name="total">   43.07   43.80</time>
   <energy>
    <i name="alphaZ">   1054.17224280 </i>
    <i name="ewald"> -30143.65458821 </i>
    <i name="hartreedc"> -12951.02004019 </i>
    <i name="XCdc">   1197.78854582 </i>
    <i name="pawpsdc">  43583.82880500 </i>
    <i name="pawaedc"> -42812.36615188 </i>
    <i name="eentropy">      0.00000000 </i>
    <i name="bandstr">  -3851.07242862 </i>
    <i name="atom">  43643.51795008 </i>
    <i name="e_fr_energy">   -278.80566519 </i>
    <i name="e_wo_entrp">   -278.80566519 </i>
    <i name="e_0_energy">   -278.80566519 </i>
   </energy>
  </scstep>
  <structure>
   <crystal>
    <varray name="basis" >
     <v>      11.17850000       0.00000000       0.00000000 </v>
     <v>       0.00000000       9.57460000       0.00000000 </v>
     <v>       0.00000000       0.00000000      11.18240000 </v>
    </varray>
    <i name="volume">   1196.84853820 </i>
    <varray name="rec_basis" >
     <v>       0.08945744       0.00000000       0.00000000 </v>
     <v>       0.00000000       0.10444301       0.00000000 </v>
     <v>       0.00000000       0.00000000       0.08942624 </v>
    </varray>
   </crystal>
   <varray name="positions" >
    <v>       0.62539000       0.99984000       0.43687000 </v>
    <v>       0.87461000       0.00017000       0.18687000 </v>
    <v>       0.37461000       0.00017000       0.68687000 </v>
    <v>       0.87539000       0.00017000       0.93687000 </v>
    <v>       0.62461000       0.99984000       0.18687000 </v>
    <v>       0.12539000       0.99984000       0.93687000 </v>
    <v>       0.12461000       0.99984000       0.68687000 </v>
    <v>       0.62539000       0.99984000       0.93687000 </v>
    <v>       0.62461000       0.99984000       0.68687000 </v>
    <v>       0.87461000       0.00017000       0.68687000 </v>
    <v>       0.00013000       0.29519000       0.06281000 </v>
    <v>       0.25013000       0.70481000       0.06281000 </v>
    <v>       0.24987000       0.29519000       0.31282000 </v>
    <v>       0.49987000       0.70481000       0.31282000 </v>
    <v>       0.50013000       0.29519000       0.06281000 </v>
    <v>       0.75013000       0.70481000       0.06281000 </v>
    <v>       0.74987000       0.29519000       0.31282000 </v>
    <v>       0.99987000       0.70481000       0.31282000 </v>
    <v>       0.00013000       0.29519000       0.56281000 </v>
    <v>       0.25013000       0.70481000       0.56281000 </v>
    <v>       0.24987000       0.29519000       0.81282000 </v>
    <v>       0.49987000       0.70481000       0.81282000 </v>
    <v>       0.50013000       0.29519000       0.56281000 </v>
    <v>       0.75013000       0.70481000       0.56281000 </v>
    <v>       0.74987000       0.29519000       0.81282000 </v>
    <v>       0.99987000       0.70481000       0.81282000 </v>
    <v>       0.25005000       0.32677000       0.06286000 </v>
    <v>       0.00005000       0.67323000       0.06286000 </v>
    <v>       0.49995000       0.32677000       0.31286000 </v>
    <v>       0.24995000       0.67323000       0.31286000 </v>
    <v>       0.75005000       0.32677000       0.06286000 </v>
    <v>       0.50005000       0.67323000       0.06286000 </v>
    <v>       0.99995000       0.32677000       0.31286000 </v>
    <v>       0.74995000       0.67323000       0.31286000 </v>
    <v>       0.25005000       0.32677000       0.56286000 </v>
    <v>       0.00005000       0.67323000       0.56286000 </v>
    <v>       0.49995000       0.32677000       0.81286000 </v>
    <v>       0.24995000       0.67323000       0.81286000 </v>
    <v>       0.75005000       0.32677000       0.56286000 </v>
    <v>       0.50005000       0.67323000       0.56286000 </v>
    <v>       0.99995000       0.32677000       0.81286000 </v>
    <v>       0.74995000       0.67323000       0.81286000 </v>
    <v>       0.49987000       0.07798000       0.06246000 </v>
    <v>       0.24987000       0.92202000       0.06246000 </v>
    <v>       0.25013000       0.07798000       0.31246000 </v>
    <v>       0.00013000       0.92202000       0.31246000 </v>
    <v>       0.99987000       0.07798000       0.06246000 </v>
    <v>       0.74987000       0.92202000       0.06246000 </v>
    <v>       0.75013000       0.07798000       0.31246000 </v>
    <v>       0.50013000       0.92202000       0.31246000 </v>
    <v>       0.49987000       0.07798000       0.56246000 </v>
    <v>       0.24987000       0.92202000       0.56246000 </v>
    <v>       0.25013000       0.07798000       0.81246000 </v>
    <v>       0.00013000       0.92202000       0.81246000 </v>
    <v>       0.99987000       0.07798000       0.56246000 </v>
    <v>       0.74987000       0.92202000       0.56246000 </v>
    <v>       0.75013000       0.07798000       0.81246000 </v>
    <v>       0.50013000       0.92202000       0.81246000 </v>
   </varray>
  </structure>
  <varray name="forces" >
   <v>      -0.31752704       0.01749960      -0.39927238 </v>
   <v>       1.16029455      -0.00590068       0.90973958 </v>
   <v>      -0.26765041      -0.04960443      -0.40918406 </v>
   <v>       0.34401118       0.11402148       0.87212675 </v>
   <v>      -1.32974981       0.13267350       1.49895435 </v>
   <v>       1.54006230       0.04064247       2.56421274 </v>
   <v>       1.42402678       0.11384004      -2.32106709 </v>
   <v>      -1.61171580       0.00304484       0.69512981 </v>
   <v>      -1.37798470      -0.09687955      -1.39292711 </v>
   <v>       0.43416625       0.09261169      -1.77826004 </v>
   <v>       0.60687433       0.18872462       0.96946558 </v>
   <v>       0.08678176       1.80022992       0.87084558 </v>
   <v>      -0.09499116      -2.80695944      -0.06021156 </v>
   <v>      -0.84407898       0.87025384       0.05219057 </v>
   <v>      -0.92563939       0.16903350       0.58698622 </v>
   <v>       0.22594608      -2.16276699       0.71597898 </v>
   <v>       0.30844962       0.18814632       0.18502656 </v>
   <v>       0.64288556       2.51995002       0.04803075 </v>
   <v>       0.47733316       0.26942566      -1.16920793 </v>
   <v>       0.04337573       0.81977302      -1.03947906 </v>
   <v>       0.34212610       1.24586041       0.18922075 </v>
   <v>      -0.75798349      -1.25035818       0.12975649 </v>
   <v>      -0.66016505       0.18532025      -0.77851657 </v>
   <v>       0.12741211      -1.24420646      -0.96288712 </v>
   <v>      -0.01553886       3.13030000       0.05813800 </v>
   <v>       0.45766109      -3.09837217       0.15085343 </v>
   <v>      -0.07906614       0.10614316      -0.67478024 </v>
   <v>      -0.51371581      -0.09602689      -0.77931858 </v>
   <v>       0.54211600       0.16972470      -0.03741285 </v>
   <v>       0.24109854      -0.26982293       0.13968908 </v>
   <v>      -0.07300758      -0.00252843      -0.44742056 </v>
   <v>       0.63206329      -0.02014512      -0.44061409 </v>
   <v>      -0.51135266       0.18282620      -0.00821138 </v>
   <v>      -0.24372827      -0.17280773      -0.12138064 </v>
   <v>      -0.05599705       0.11695899       0.66703852 </v>
   <v>      -0.38092732       0.02617018       0.81518310 </v>
   <v>       0.43767963      -0.08526672      -0.01731870 </v>
   <v>      -0.20145801      -0.07915516      -0.11750494 </v>
   <v>      -0.00624613      -0.06400497       0.54985512 </v>
   <v>       0.41806107      -0.09943167       0.47782362 </v>
   <v>      -0.27640818      -0.11492428      -0.04906850 </v>
   <v>       0.03314929       0.29050543      -0.00083479 </v>
   <v>       2.49837961      -0.33210597      -0.42719013 </v>
   <v>      -1.07687942      -1.44227459      -1.39928499 </v>
   <v>       0.03138325       2.40599568       0.03409482 </v>
   <v>      -0.78700570      -2.12930625      -0.56652560 </v>
   <v>      -0.54136468      -0.23378015      -1.72271039 </v>
   <v>      -0.82985163       1.73291494      -0.62899869 </v>
   <v>      -1.10209844      -0.17497738      -1.21580350 </v>
   <v>       1.89732214      -0.68632852      -0.47444405 </v>
   <v>       1.37728678      -0.25087326       1.44396541 </v>
   <v>      -0.48704592      -0.58248298       2.05295793 </v>
   <v>      -1.78129559      -1.02996977      -0.63405199 </v>
   <v>      -0.06837552       2.42981878      -0.43996498 </v>
   <v>      -0.34332467      -0.45884436       2.65084632 </v>
   <v>      -0.50607825       1.15216877       2.08186837 </v>
   <v>      -0.23799024      -2.64884575      -0.35166175 </v>
   <v>       1.97629571       1.17437278      -0.54446416 </v>
  </varray>
  <varray name="stress" >
   <v>       2.92079664       0.03468154      -0.88221437 </v>
   <v>       0.03468164      -8.52965777      -0.13089557 </v>
   <v>      -0.88221454      -0.13089551       2.09612539 </v>
  </varray>
  <energy>
   <i name="e_fr_energy">   -290.47212722 </i>
   <i name="e_wo_entrp">   -290.47212722 </i>
   <i name="e_0_energy">      0.00000000 </i>
  </energy>
  <time name="totalsc"> 2802.74 2815.45</time>
 </calculation>
 <calculation>
  <scstep>
   <time name="dav">   67.84   67.89</time>
   <time name="total">   68.61   68.67</time>
   <energy>
    <i name="alphaZ">   1056.49345558 </i>
    <i name="ewald"> -30174.54995935 </i>
    <i name="hartreedc"> -12930.53691763 </i>
    <i name="XCdc">   1199.31549281 </i>
    <i name="pawpsdc">  43583.82993542 </i>
    <i name="pawaedc"> -42812.36728120 </i>
    <i name="eentropy">      0.00000000 </i>
    <i name="bandstr">  -3843.06477550 </i>
    <i name="atom">  43643.51795008 </i>
    <i name="e_fr_energy">   -277.36209978 </i>
    <i name="e_wo_entrp">   -277.36209978 </i>
    <i name="e_0_energy">   -277.36209978 </i>
   </energy>
  </scstep>
  <scstep>
   <time name="dav">   71.16   71.32</time>
   <time name="total">   71.94   72.10</time>
   <energy>
    <i name="e_fr_energy">   -283.35309261 </i>
    <i name="e_wo_entrp">   -283.35309261 </i>
    <i name="e_0_energy">   -283.35309261 </i>
   </energy>
  </scstep>
  <scstep>
   <time name="dav">   78.98   79.12</time>
   <time name="total">   79.82   79.97</time>
   <energy>
    <i name="e_fr_energy">   -283.05642767 </i>
    <i name="e_wo_entrp">   -283.05642767 </i>
    <i name="e_0_energy">   -283.05642767 </i>
   </energy>
  </scstep>
  <scstep>
   <time name="dav">   81.36   81.39</time>
   <time name="total">   82.15   82.17</time>
   <energy>
    <i name="e_fr_energy">   -282.92939495 </i>
    <i name="e_wo_entrp">   -282.92939495 </i>
    <i name="e_0_energy">   -282.92939495 </i>
   </energy>
  </scstep>
  <scstep>
   <time name="dav">   79.67   79.84</time>
   <time name="total">   80.45   80.63</time>
   <energy>
    <i name="e_fr_energy">   -282.83611748 </i>
    <i name="e_wo_entrp">   -282.83611748 </i>
    <i name="e_0_energy">   -282.83611748 </i>
   </energy>
  </scstep>
  <scstep>
   <time name="dav">   79.26   79.36</time>
   <time name="total">   80.04   80.15</time>
   <energy>
    <i name="e_fr_energy">   -282.80722772 </i>
    <i name="e_wo_entrp">   -282.80722772 </i>
    <i name="e_0_energy">   -282.80722772 </i>
   </energy>
  </scstep>
  <scstep>
   <time name="dav">   69.83   69.96</time>
   <time name="total">   70.65   70.78</time>
   <energy>
    <i name="e_fr_energy">   -282.80993661 </i>
    <i name="e_wo_entrp">   -282.80993661 </i>
    <i name="e_0_energy">   -282.80993661 </i>
   </energy>
  </scstep>
  <scstep>
   <time name="dav">   88.99   89.09</time>
   <time name="total">   89.78   89.88</time>
   <energy>
    <i name="e_fr_energy">   -282.80900265 </i>
    <i name="e_wo_entrp">   -282.80900265 </i>
    <i name="e_0_energy">   -282.80900265 </i>
   </energy>
  </scstep>
  <scstep>
   <time name="dav">   73.86   73.98</time>
   <time name="total">   74.66   74.79</time>
   <energy>
    <i name="e_fr_energy">   -282.80836259 </i>
    <i name="e_wo_entrp">   -282.80836259 </i>
    <i name="e_0_energy">   -282.80836259 </i>
   </energy>
  </scstep>
  <scstep>
   <time name="dav">   78.40   78.45</time>
   <time name="total">   79.18   79.24</time>
   <energy>
    <i name="e_fr_energy">   -282.80842570 </i>
    <i name="e_wo_entrp">   -282.80842570 </i>
    <i name="e_0_energy">   -282.80842570 </i>
   </energy>
  </scstep>
  <scstep>
   <time name="dav">   73.27   73.35</time>
   <time name="total">   74.05   74.14</time>
   <energy>
    <i name="e_fr_energy">   -282.80844328 </i>
    <i name="e_wo_entrp">   -282.80844328 </i>
    <i name="e_0_energy">   -282.80844328 </i>
   </energy>
  </scstep>
  <scstep>
   <time name="dav">   71.69   71.75</time>
   <time name="total">   72.47   72.53</time>
   <energy>
    <i name="e_fr_energy">   -282.80845095 </i>
    <i name="e_wo_entrp">   -282.80845095 </i>
    <i name="e_0_energy">   -282.80845095 </i>
   </energy>
  </scstep>
  <scstep>
   <time name="dav">   75.10   75.21</time>
   <time name="total">   75.88   76.00</time>
   <energy>
    <i name="e_fr_energy">   -282.80845391 </i>
    <i name="e_wo_entrp">   -282.80845391 </i>
    <i name="e_0_energy">   -282.80845391 </i>
   </energy>
  </scstep>
  <scstep>
   <time name="dav">   60.49   60.68</time>
   <time name="total">   60.56   60.75</time>
   <energy>
    <i name="alphaZ">   1056.49345558 </i>
    <i name="ewald"> -30174.54995935 </i>
    <i name="hartreedc"> -12929.56179170 </i>
    <i name="XCdc">   1199.90963072 </i>
    <i name="pawpsdc">  43722.79661840 </i>
    <i name="pawaedc"> -42952.78206612 </i>
    <i name="eentropy">      0.00000000 </i>
    <i name="bandstr">  -3848.63229217 </i>
    <i name="atom">  43643.51795008 </i>
    <i name="e_fr_energy">   -282.80845456 </i>
    <i name="e_wo_entrp">   -282.80845456 </i>
    <i name="e_0_energy">   -282.80845456 </i>
   </energy>
  </scstep>
  <structure>
   <crystal>
    <varray name="basis" >
     <v>      11.19878695       0.00024089      -0.00612759 </v>
     <v>       0.00020633       9.52385608      -0.00077871 </v>
     <v>      -0.00612973      -0.00090948      11.19696411 </v>
    </varray>
    <i name="volume">   1194.21895246 </i>
    <varray name="rec_basis" >
     <v>       0.08929541      -0.00000193       0.00004888 </v>
     <v>      -0.00000225       0.10499949       0.00000853 </v>
     <v>       0.00004887       0.00000730       0.08930995 </v>
    </varray>
   </crystal>
   <varray name="positions" >
    <v>       0.62401966       0.99992817       0.43514748 </v>
    <v>       0.87961744       0.00014027       0.19079476 </v>
    <v>       0.37345491      -0.00007994       0.68510471 </v>
    <v>       0.87687464       0.00074451       0.94063249 </v>
    <v>       0.61887125       0.00050849       0.19333673 </v>
    <v>       0.13203639       0.00004478       0.94793242 </v>
    <v>       0.13075562       0.00041360       0.67685655 </v>
    <v>       0.61843438       0.99985534       0.93986890 </v>
    <v>       0.61866308       0.99935186       0.68086069 </v>
    <v>       0.87648372       0.00063663       0.67919830 </v>
    <v>       0.00274907       0.29614091       0.06699243 </v>
    <v>       0.25050452       0.71388065       0.06656697 </v>
    <v>       0.24946005       0.28104683       0.31256024 </v>
    <v>       0.49622724       0.70919487       0.31304516 </v>
    <v>       0.49613525       0.29604169       0.06534235 </v>
    <v>       0.75110511       0.69391267       0.06589885 </v>
    <v>       0.75120117       0.29613800       0.31361823 </v>
    <v>       0.00264448       0.71750704       0.31302721 </v>
    <v>       0.00219001       0.29654753       0.55776585 </v>
    <v>       0.25031720       0.70894051       0.55832552 </v>
    <v>       0.25134650       0.30146740       0.81363633 </v>
    <v>       0.49659880       0.69850994       0.81337979 </v>
    <v>       0.49728095       0.29612376       0.55945136 </v>
    <v>       0.75067987       0.69854093       0.55865595 </v>
    <v>       0.74980294       0.31096235       0.81307082 </v>
    <v>       0.00184511       0.68919852       0.81347081 </v>
    <v>       0.24970878       0.32730481       0.05994889 </v>
    <v>      -0.00216703       0.67274616       0.05949790 </v>
    <v>       0.50228959       0.32762518       0.31269860 </v>
    <v>       0.25099050       0.67187047       0.31346264 </v>
    <v>       0.74973492       0.32675726       0.06092976 </v>
    <v>       0.50277777       0.67312850       0.06095912 </v>
    <v>       0.99774317       0.32769119       0.31282457 </v>
    <v>       0.74889815       0.67235929       0.31233634 </v>
    <v>       0.24980834       0.32735931       0.56573771 </v>
    <v>      -0.00159395       0.67336186       0.56637683 </v>
    <v>       0.50183888       0.32634037       0.81278528 </v>
    <v>       0.24908057       0.67283117       0.81235306 </v>
    <v>       0.75002304       0.32644750       0.56523216 </v>
    <v>       0.50185421       0.67272900       0.56492141 </v>
    <v>       0.99875712       0.32619094       0.81264831 </v>
    <v>       0.75009306       0.67469374       0.81285640 </v>
    <v>       0.51065217       0.07630665       0.06061703 </v>
    <v>       0.24522255       0.91475294       0.05642326 </v>
    <v>       0.25026544       0.09010287       0.31260709 </v>
    <v>      -0.00326645       0.91129126       0.31001592 </v>
    <v>       0.99753365       0.07680207       0.05502795 </v>
    <v>       0.74628864       0.93075148       0.05974640 </v>
    <v>       0.74537371       0.07709836       0.30721483 </v>
    <v>       0.50831821       0.91856186       0.31041317 </v>
    <v>       0.50581391       0.07671595       0.56868950 </v>
    <v>       0.24776807       0.91908510       0.57131679 </v>
    <v>       0.24244253       0.07279039       0.80972460 </v>
    <v>      -0.00016509       0.93426290       0.81056192 </v>
    <v>       0.99838833       0.07566806       0.57389617 </v>
    <v>       0.74768594       0.92782533       0.57144151 </v>
    <v>       0.74910291       0.06463351       0.81094288 </v>
    <v>       0.50865903       0.92793720       0.81011109 </v>
   </varray>
  </structure>
  <varray name="forces" >
   <v>      -0.10233483       0.01183123      -0.13667242 </v>
   <v>       0.64181071      -0.00388497       0.52443440 </v>
   <v>      -0.12308642      -0.02365825      -0.09540412 </v>
   <v>       0.04516053       0.03438857       0.19729857 </v>
   <v>      -0.24505301       0.14460547       0.09317523 </v>
   <v>       0.19676310       0.32119248       0.29728285 </v>
   <v>      -0.04500285       0.23573808      -0.18413541 </v>
   <v>      -0.07571955      -0.13977729      -0.27323813 </v>
   <v>       0.20410168      -0.20457726       0.24381699 </v>
   <v>      -0.17333858      -0.12829590       0.10668243 </v>
   <v>       0.18191633      -0.12487083       0.31516067 </v>
   <v>       0.16526973      -1.75476913       0.56434425 </v>
   <v>      -0.03975261       3.61781107      -0.00924164 </v>
   <v>      -0.49191505      -0.67855591       0.04166335 </v>
   <v>      -0.38949184      -0.20295093       0.28593676 </v>
   <v>       0.09232461       0.24749925       0.17801056 </v>
   <v>       0.13536755       0.00179146       0.03003048 </v>
   <v>       0.42410418      -3.24384400       0.13551738 </v>
   <v>       0.20143484      -0.28106010      -0.48343302 </v>
   <v>       0.02855820      -0.53622624      -0.58607442 </v>
   <v>      -0.00161504      -0.27448032       0.06268304 </v>
   <v>      -0.20746806       0.31329770       0.08488085 </v>
   <v>      -0.32209390      -0.04744861      -0.40548747 </v>
   <v>       0.10942734       0.28142311      -0.30823909 </v>
   <v>       0.10085965      -0.15611458       0.07065847 </v>
   <v>       0.10883149       0.15011777       0.05476522 </v>
   <v>      -0.06350559       0.04050447      -0.51135476 </v>
   <v>      -0.22512465      -0.17913903      -0.40996772 </v>
   <v>       0.41820772       0.13968520      -0.03137340 </v>
   <v>       0.22584312      -0.07619080       0.11398379 </v>
   <v>      -0.04281018       0.27651127      -0.20723055 </v>
   <v>       0.30500769      -0.07635084      -0.22154190 </v>
   <v>      -0.41680586       0.08354168       0.00661218 </v>
   <v>      -0.16055648      -0.22321562      -0.03784056 </v>
   <v>      -0.03689777       0.09633861       0.48220973 </v>
   <v>      -0.19307411      -0.07302949       0.42323422 </v>
   <v>       0.21580661       0.11013085      -0.00030939 </v>
   <v>      -0.05444577      -0.23647594      -0.04622837 </v>
   <v>       0.00089736       0.10876026       0.26472584 </v>
   <v>       0.19776690      -0.10477658       0.23787312 </v>
   <v>      -0.12974088       0.34585486      -0.02830425 </v>
   <v>      -0.02747397      -0.27211977      -0.02100214 </v>
   <v>       1.06306070       0.53950271       0.26451927 </v>
   <v>      -0.42510258       1.64044614      -0.59833204 </v>
   <v>       0.06319991      -4.21270397       0.02539823 </v>
   <v>      -0.75159211       3.66668106      -0.58589700 </v>
   <v>      -0.19285206       0.26922946      -0.73522566 </v>
   <v>      -0.58668223      -0.70464532       0.10262798 </v>
   <v>      -0.71508571       0.16854295      -0.63897149 </v>
   <v>       1.08796448       0.53768678       0.04331098 </v>
   <v>       0.27878522       0.41276157       0.29177506 </v>
   <v>       0.25270378       0.28586748       0.92322832 </v>
   <v>      -0.86983595       0.63035699      -0.37105219 </v>
   <v>       0.35413591      -0.77852646      -0.27529727 </v>
   <v>       0.22014048       0.71536633       0.91971370 </v>
   <v>      -0.50527889      -0.74349498       0.60247367 </v>
   <v>      -0.34988930       0.78550325      -0.32606928 </v>
   <v>       0.64417598      -0.73178503      -0.46010390 </v>
  </varray>
  <varray name="stress" >
   <v>       9.30383605      -2.05151685      -0.33003641 </v>
   <v>      -2.05151687       5.62165804      -1.44107216 </v>
   <v>      -0.33003613      -1.44107256       8.77040047 </v>
  </varray>
  <energy>
   <i name="e_fr_energy">   -294.53162013 </i>
   <i name="e_wo_entrp">   -294.53162013 </i>
   <i name="e_0_energy">      0.00000000 </i>
  </energy>
  <time name="totalsc"> 1169.11 1171.04</time>
 </calculation>
 <calculation>
  <scstep>
   <time name="dav">   65.83   65.97</time>
   <time name="total">   66.61   66.75</time>
   <energy>
    <i name="alphaZ">   1056.25362447 </i>
    <i name="ewald"> -30176.96695436 </i>
    <i name="hartreedc"> -12926.98278716 </i>
    <i name="XCdc">   1199.68080367 </i>
    <i name="pawpsdc">  43722.71477322 </i>
    <i name="pawaedc"> -42952.69959957 </i>
    <i name="eentropy">      0.00000000 </i>
    <i name="bandstr">  -3848.33257933 </i>
    <i name="atom">  43643.51795008 </i>
    <i name="e_fr_energy">   -282.81476898 </i>
    <i name="e_wo_entrp">   -282.81476898 </i>
    <i name="e_0_energy">   -282.81476898 </i>
   </energy>
  </scstep>
  <scstep>
   <time name="dav">   70.80   70.93</time>
   <time name="total">   71.58   71.72</time>
   <energy>
    <i name="e_fr_energy">   -282.88104909 </i>
    <i name="e_wo_entrp">   -282.88104909 </i>
    <i name="e_0_energy">   -282.88104909 </i>
   </energy>
  </scstep>
  <scstep>
   <time name="dav">   74.37   74.86</time>
   <time name="total">   75.16   75.65</time>
   <energy>
    <i name="e_fr_energy">   -282.87865034 </i>
    <i name="e_wo_entrp">   -282.87865034 </i>
    <i name="e_0_energy">   -282.87865034 </i>
   </energy>
  </scstep>
  <scstep>
   <time name="dav">   79.06   79.22</time>
   <time name="total">   79.84   80.01</time>
   <energy>
    <i name="e_fr_energy">   -282.87669694 </i>
    <i name="e_wo_entrp">   -282.87669694 </i>
    <i name="e_0_energy">   -282.87669694 </i>
   </energy>
  </scstep>
  <scstep>
   <time name="dav">   72.64   73.01</time>
   <time name="total">   73.48   73.86</time>
   <energy>
    <i name="e_fr_energy">   -282.87516659 </i>
    <i name="e_wo_entrp">   -282.87516659 </i>
    <i name="e_0_energy">   -282.87516659 </i>
   </energy>
  </scstep>
  <scstep>
   <time name="dav">   78.29   78.39</time>
   <time name="total">   79.06   79.17</time>
   <energy>
    <i name="e_fr_energy">   -282.87512925 </i>
    <i name="e_wo_entrp">   -282.87512925 </i>
    <i name="e_0_energy">   -282.87512925 </i>
   </energy>
  </scstep>
  <scstep>
   <time name="dav">   71.90   72.18</time>
   <time name="total">   72.68   72.97</time>
   <energy>
    <i name="e_fr_energy">   -282.87512326 </i>
    <i name="e_wo_entrp">   -282.87512326 </i>
    <i name="e_0_energy">   -282.87512326 </i>
   </energy>
  </scstep>
  <scstep>
   <time name="dav">   73.22   73.22</time>
   <time name="total">   74.00   74.00</time>
   <energy>
    <i name="e_fr_energy">   -282.87510775 </i>
    <i name="e_wo_entrp">   -282.87510775 </i>
    <i name="e_0_energy">   -282.87510775 </i>
   </energy>
  </scstep>
  <scstep>
   <time name="dav">   83.12   83.11</time>
   <time name="total">   83.90   83.90</time>
   <energy>
    <i name="e_fr_energy">   -282.87510517 </i>
    <i name="e_wo_entrp">   -282.87510517 </i>
    <i name="e_0_energy">   -282.87510517 </i>
   </energy>
  </scstep>
  <scstep>
   <time name="dav">   62.15   62.17</time>
   <time name="total">   62.93   62.95</time>
   <energy>
    <i name="e_fr_energy">   -282.87510690 </i>
    <i name="e_wo_entrp">   -282.87510690 </i>
    <i name="e_0_energy">   -282.87510690 </i>
   </energy>
  </scstep>
  <scstep>
   <time name="dav">   44.52   44.52</time>
   <time name="total">   44.59   44.59</time>
   <energy>
    <i name="alphaZ">   1056.25362447 </i>
    <i name="ewald"> -30176.96695436 </i>
    <i name="hartreedc"> -12927.29436249 </i>
    <i name="XCdc">   1199.64034203 </i>
    <i name="pawpsdc">  43686.25179717 </i>
    <i name="pawaedc"> -42915.74636713 </i>
    <i name="eentropy">      0.00000000 </i>
    <i name="bandstr">  -3848.53113711 </i>
    <i name="atom">  43643.51795008 </i>
    <i name="e_fr_energy">   -282.87510735 </i>
    <i name="e_wo_entrp">   -282.87510735 </i>
    <i name="e_0_energy">   -282.87510735 </i>
   </energy>
  </scstep>
  <structure>
   <crystal>
    <varray name="basis" >
     <v>      11.19670730       0.00021619      -0.00549944 </v>
     <v>       0.00018517       9.52905790      -0.00069889 </v>
     <v>      -0.00550136      -0.00081625      11.19547113 </v>
    </varray>
    <i name="volume">   1194.49010974 </i>
    <varray name="rec_basis" >
     <v>       0.08931199      -0.00000173       0.00004389 </v>
     <v>      -0.00000202       0.10494217       0.00000765 </v>
     <v>       0.00004387       0.00000655       0.08932185 </v>
    </varray>
   </crystal>
   <varray name="positions" >
    <v>       0.62415998       0.99991910       0.43532390 </v>
    <v>       0.87910483       0.00014331       0.19039267 </v>
    <v>       0.37357320      -0.00005417       0.68528551 </v>
    <v>       0.87672251       0.00068527       0.94024721 </v>
    <v>       0.61945811       0.00043952       0.19267499 </v>
    <v>       0.13135568       0.00002359       0.94679950 </v>
    <v>       0.13012733       0.00035460       0.67788136 </v>
    <v>       0.61914595       0.99985371       0.93956227 </v>
    <v>       0.61927194       0.99940221       0.68147625 </v>
    <v>       0.87629242       0.00058862       0.67998361 </v>
    <v>       0.00248084       0.29604288       0.06656409 </v>
    <v>       0.25046600       0.71294582       0.06618225 </v>
    <v>       0.24950199       0.28250439       0.31258696 </v>
    <v>       0.49659998       0.70874296       0.31302228 </v>
    <v>       0.49654388       0.29595389       0.06508331 </v>
    <v>       0.75100514       0.69503569       0.06558264 </v>
    <v>       0.75106491       0.29604029       0.31353643 </v>
    <v>       0.00236059       0.71619852       0.31300575 </v>
    <v>       0.00197950       0.29640768       0.55828214 </v>
    <v>       0.25029830       0.70851488       0.55878459 </v>
    <v>       0.25119538       0.30082046       0.81355263 </v>
    <v>       0.49693348       0.69915919       0.81332271 </v>
    <v>       0.49757267       0.29602755       0.55979536 </v>
    <v>       0.75062382       0.69918705       0.55908125 </v>
    <v>       0.74980982       0.30933689       0.81304503 </v>
    <v>       0.00164294       0.69080740       0.81340418 </v>
    <v>       0.24974386       0.32724972       0.06024694 </v>
    <v>      -0.00193998       0.67279605       0.05984223 </v>
    <v>       0.50205020       0.32753705       0.31271498 </v>
    <v>       0.25088399       0.67201057       0.31340090 </v>
    <v>       0.74976727       0.32675859       0.06112739 </v>
    <v>       0.50249876       0.67313898       0.06115358 </v>
    <v>       0.99796899       0.32759625       0.31282832 </v>
    <v>       0.74900581       0.67244903       0.31239002 </v>
    <v>       0.24983290       0.32729855       0.56544311 </v>
    <v>      -0.00142593       0.67334823       0.56601687 </v>
    <v>       0.50164560       0.32638466       0.81279283 </v>
    <v>       0.24916957       0.67287227       0.81240502 </v>
    <v>       0.75002567       0.32648072       0.56498931 </v>
    <v>       0.50166948       0.67278062       0.56471027 </v>
    <v>       0.99887919       0.32625062       0.81267005 </v>
    <v>       0.75007843       0.67454289       0.81285675 </v>
    <v>       0.50954898       0.07647915       0.06080512 </v>
    <v>       0.24569843       0.91550192       0.05704160 </v>
    <v>       0.25025160       0.08885352       0.31259194 </v>
    <v>      -0.00291879       0.91239695       0.31026641 </v>
    <v>       0.99777313       0.07692353       0.05578897 </v>
    <v>       0.74665527       0.92985165       0.06002435 </v>
    <v>       0.74586070       0.07718926       0.30775209 </v>
    <v>       0.50748045       0.91891829       0.31062229 </v>
    <v>       0.50520534       0.07684617       0.56805141 </v>
    <v>       0.24798265       0.91938747       0.57041019 </v>
    <v>       0.24322930       0.07332522       0.81000511 </v>
    <v>      -0.00013476       0.93300120       0.81075617 </v>
    <v>       0.99853929       0.07590621       0.57272546 </v>
    <v>       0.74790893       0.92722695       0.57052208 </v>
    <v>       0.74920807       0.06600897       0.81109835 </v>
    <v>       0.50778643       0.92732744       0.81035105 </v>
   </varray>
  </structure>
  <varray name="forces" >
   <v>      -0.12590756       0.01103666      -0.16548803 </v>
   <v>       0.69694974      -0.00975283       0.56642188 </v>
   <v>      -0.13947016      -0.02725603      -0.13006904 </v>
   <v>       0.07964994       0.04459259       0.26870116 </v>
   <v>      -0.36637483       0.12728042       0.25885550 </v>
   <v>       0.35634779       0.25526270       0.54470970 </v>
   <v>       0.13238414       0.19466667      -0.41928145 </v>
   <v>      -0.25624707      -0.10923594      -0.15189617 </v>
   <v>       0.01361601      -0.17338647       0.04702976 </v>
   <v>      -0.08855864      -0.09156989      -0.11382036 </v>
   <v>       0.23197590      -0.09587920       0.39173074 </v>
   <v>       0.14279602      -1.24785888       0.57751151 </v>
   <v>      -0.04006971       2.43313902      -0.01236679 </v>
   <v>      -0.52496635      -0.49415953       0.04066375 </v>
   <v>      -0.45233286      -0.16585285       0.32589121 </v>
   <v>       0.10711595       0.07916409       0.23725548 </v>
   <v>       0.15641691       0.02257210       0.04514315 </v>
   <v>       0.41745853      -2.28537731       0.11036209 </v>
   <v>       0.23667081      -0.22881447      -0.56496958 </v>
   <v>       0.02828902      -0.37759955      -0.63216839 </v>
   <v>       0.03333966      -0.14776662       0.07871792 </v>
   <v>      -0.26585380       0.18884506       0.09049107 </v>
   <v>      -0.36369696      -0.02410119      -0.45303512 </v>
   <v>       0.11214919       0.15994889      -0.38033636 </v>
   <v>       0.09012360       0.03556548       0.06992950 </v>
   <v>       0.14604613      -0.04639955       0.06572380 </v>
   <v>      -0.06481854       0.05006601      -0.54152885 </v>
   <v>      -0.25726568      -0.17398352      -0.45597637 </v>
   <v>       0.44118295       0.14612111      -0.03180601 </v>
   <v>       0.23230756      -0.09928989       0.11858866 </v>
   <v>      -0.04736706       0.25099761      -0.23845283 </v>
   <v>       0.34117040      -0.07203992      -0.24688198 </v>
   <v>      -0.43864850       0.09631987       0.00554877 </v>
   <v>      -0.17078270      -0.22011388      -0.04726982 </v>
   <v>      -0.03843546       0.10150585       0.51320054 </v>
   <v>      -0.21385632      -0.06563042       0.47022022 </v>
   <v>       0.24517875       0.09250961      -0.00261833 </v>
   <v>      -0.07162331      -0.22184492      -0.05378403 </v>
   <v>      -0.00040489       0.09280354       0.30188099 </v>
   <v>       0.22231429      -0.10485965       0.26579241 </v>
   <v>      -0.14878769       0.30546426      -0.03122435 </v>
   <v>      -0.02215784      -0.22251246      -0.01988947 </v>
   <v>       1.24173929       0.42945554       0.16027242 </v>
   <v>      -0.50910260       1.21434294      -0.68827216 </v>
   <v>       0.05798910      -3.01554640       0.02612757 </v>
   <v>      -0.72924117       2.71249817      -0.56967499 </v>
   <v>      -0.23474449       0.21694290      -0.84668996 </v>
   <v>      -0.61934968      -0.52555577       0.02549154 </v>
   <v>      -0.76279233       0.13085353      -0.70394885 </v>
   <v>       1.18479080       0.40271731      -0.02805876 </v>
   <v>       0.43285999       0.31823155       0.45153822 </v>
   <v>       0.14220013       0.20623994       1.06579550 </v>
   <v>      -0.96915287       0.48922725      -0.40467336 </v>
   <v>       0.31937955      -0.57082942      -0.29371546 </v>
   <v>       0.13228280       0.57484059       1.13460858 </v>
   <v>      -0.50668619      -0.57253719       0.77508872 </v>
   <v>      -0.34392233       0.56997009      -0.33293520 </v>
   <v>       0.79789264      -0.56342761      -0.47246029 </v>
  </varray>
  <varray name="stress" >
   <v>       8.19933551      -1.63937890      -0.38143027 </v>
   <v>      -1.63937902       0.90627872      -1.17917716 </v>
   <v>      -0.38143016      -1.17917706       7.64699064 </v>
  </varray>
  <energy>
   <i name="e_fr_energy">   -294.59173856 </i>
   <i name="e_wo_entrp">   -294.59173856 </i>
   <i name="e_0_energy">      0.00000000 </i>
  </energy>
  <time name="totalsc">  892.34  894.14</time>
 </calculation>
 <calculation>
  <scstep>
   <time name="dav">   69.49   69.56</time>
   <time name="total">   70.27   70.34</time>
   <energy>
    <i name="alphaZ">   1046.25559649 </i>
    <i name="ewald"> -30170.74530764 </i>
    <i name="hartreedc"> -12800.65606693 </i>
    <i name="XCdc">   1193.75952553 </i>
    <i name="pawpsdc">  43686.43747438 </i>
    <i name="pawaedc"> -42915.93367041 </i>
    <i name="eentropy">      0.00000000 </i>
    <i name="bandstr">  -3964.60359238 </i>
    <i name="atom">  43643.51795008 </i>
    <i name="e_fr_energy">   -281.96809086 </i>
    <i name="e_wo_entrp">   -281.96809086 </i>
    <i name="e_0_energy">   -281.96809086 </i>
   </energy>
  </scstep>
  <scstep>
   <time name="dav">   69.72   69.72</time>
   <time name="total">   70.50   70.51</time>
   <energy>
    <i name="e_fr_energy">   -284.10431333 </i>
    <i name="e_wo_entrp">   -284.10431333 </i>
    <i name="e_0_energy">   -284.10431333 </i>
   </energy>
  </scstep>
  <scstep>
   <time name="dav">   77.83   77.82</time>
   <time name="total">   78.62   78.61</time>
   <energy>
    <i name="e_fr_energy">   -283.95848006 </i>
    <i name="e_wo_entrp">   -283.95848006 </i>
    <i name="e_0_energy">   -283.95848006 </i>
   </energy>
  </scstep>
  <scstep>
   <time name="dav">   72.44   72.48</time>
   <time name="total">   73.22   73.26</time>
   <energy>
    <i name="e_fr_energy">   -283.86039281 </i>
    <i name="e_wo_entrp">   -283.86039281 </i>
    <i name="e_0_energy">   -283.86039281 </i>
   </energy>
  </scstep>
  <scstep>
   <time name="dav">   75.60   75.59</time>
   <time name="total">   76.38   76.37</time>
   <energy>
    <i name="e_fr_energy">   -283.81131236 </i>
    <i name="e_wo_entrp">   -283.81131236 </i>
    <i name="e_0_energy">   -283.81131236 </i>
   </energy>
  </scstep>
  <scstep>
   <time name="dav">   75.96   75.93</time>
   <time name="total">   76.77   76.74</time>
   <energy>
    <i name="e_fr_energy">   -283.79932849 </i>
    <i name="e_wo_entrp">   -283.79932849 </i>
    <i name="e_0_energy">   -283.79932849 </i>
   </energy>
  </scstep>
  <scstep>
   <time name="dav">   78.27   78.24</time>
   <time name="total">   79.05   79.03</time>
   <energy>
    <i name="e_fr_energy">   -283.79936231 </i>
    <i name="e_wo_entrp">   -283.79936231 </i>
    <i name="e_0_energy">   -283.79936231 </i>
   </energy>
  </scstep>
  <scstep>
   <time name="dav">   82.37   82.37</time>
   <time name="total">   83.15   83.16</time>
[...]
       <r>    8.8010    0.0000 </r>
       <r>    8.8611    0.0000 </r>
       <r>    8.8759    0.0000 </r>
       <r>    8.9792    0.0000 </r>
       <r>    9.1792    0.0000 </r>
       <r>    9.3195    0.0000 </r>
       <r>    9.4655    0.0000 </r>
       <r>   10.0167    0.0000 </r>
       <r>   10.0858    0.0000 </r>
       <r>   10.1714    0.0000 </r>
       <r>   10.2629    0.0000 </r>
      </set>
     </set>
    </set>
   </array>
  </eigenvalues>
  <separator name="orbital magnetization" >
   <v name="MAGDIPOLOUT">      0.00000000      0.00000000      0.00000000</v>
  </separator>
  <dos>
   <i name="efermi">      4.15658110 </i>
   <total>
    <array>
     <dimension dim="1">gridpoints</dimension>
     <dimension dim="2">spin</dimension>
     <field>energy</field>
     <field>total</field>
     <field>integrated</field>
     <set>
      <set comment="spin 1">
       <r>   -42.9458     0.0000     0.0000 </r>
       <r>   -42.7600     0.0000     0.0000 </r>
       <r>   -42.5742     0.0000     0.0000 </r>
       <r>   -42.3884     0.0000     0.0000 </r>
       <r>   -42.2026     0.0000     0.0000 </r>
       <r>   -42.0168     0.0000     0.0000 </r>
       <r>   -41.8309     0.0000     0.0000 </r>
       <r>   -41.6451     0.0000     0.0000 </r>
       <r>   -41.4593     0.0000     0.0000 </r>
       <r>   -41.2735     0.0000     0.0000 </r>
       <r>   -41.0877     0.0000     0.0000 </r>
       <r>   -40.9019     0.0000     0.0000 </r>
       <r>   -40.7161     0.0000     0.0000 </r>
       <r>   -40.5303     0.0000     0.0000 </r>
       <r>   -40.3445     0.0000     2.0000 </r>
       <r>   -40.1587     0.0000     4.0000 </r>
       <r>   -39.9729     0.0000     4.0000 </r>
       <r>   -39.7871     0.0000     4.0000 </r>
       <r>   -39.6012     0.0000     8.0000 </r>
       <r>   -39.4154     0.0000     8.0000 </r>
       <r>   -39.2296     0.0000     8.0000 </r>
       <r>   -39.0438     0.0000     8.0000 </r>
       <r>   -38.8580     0.0000     8.0000 </r>
       <r>   -38.6722     0.0000     8.0000 </r>
       <r>   -38.4864     0.0000     8.0000 </r>
       <r>   -38.3006     0.0000     8.0000 </r>
       <r>   -38.1148     0.0000     8.0000 </r>
       <r>   -37.9290     0.0000     8.0000 </r>
       <r>   -37.7432     0.0000     8.0000 </r>
       <r>   -37.5574     0.0000     8.0000 </r>
       <r>   -37.3715     0.0000     8.0000 </r>
       <r>   -37.1857     0.0000     8.0000 </r>
       <r>   -36.9999     0.0000     8.0000 </r>
       <r>   -36.8141     0.0000     8.0000 </r>
       <r>   -36.6283     0.0000     8.0000 </r>
       <r>   -36.4425     0.0000     8.0000 </r>
       <r>   -36.2567     0.0000     8.0000 </r>
       <r>   -36.0709     0.0000     8.0000 </r>
       <r>   -35.8851     0.0000     8.0000 </r>
       <r>   -35.6993     0.0000     8.0000 </r>
       <r>   -35.5135     0.0000     8.0000 </r>
       <r>   -35.3277     0.0000     8.0000 </r>
       <r>   -35.1419     0.0000     8.0000 </r>
       <r>   -34.9560     0.0000     8.0000 </r>
       <r>   -34.7702     0.0000     8.0000 </r>
       <r>   -34.5844     0.0000     8.0000 </r>
       <r>   -34.3986     0.0000     8.0000 </r>
       <r>   -34.2128     0.0000     8.0000 </r>
       <r>   -34.0270     0.0000     8.0000 </r>
       <r>   -33.8412     0.0000     8.0000 </r>
       <r>   -33.6554     0.0000     8.0000 </r>
       <r>   -33.4696     0.0000     8.0000 </r>
       <r>   -33.2838     0.0000     8.0000 </r>
       <r>   -33.0980     0.0000     8.0000 </r>
       <r>   -32.9122     0.0000     8.0000 </r>
       <r>   -32.7263     0.0000     8.0000 </r>
       <r>   -32.5405     0.0000     8.0000 </r>
       <r>   -32.3547     0.0000     8.0000 </r>
       <r>   -32.1689     0.0000     8.0000 </r>
       <r>   -31.9831     0.0000     8.0000 </r>
       <r>   -31.7973     0.0000     8.0000 </r>
       <r>   -31.6115     0.0000     8.0000 </r>
       <r>   -31.4257     0.0000     8.0000 </r>
       <r>   -31.2399     0.0000     8.0000 </r>
       <r>   -31.0541     0.0000     8.0000 </r>
       <r>   -30.8683     0.0000     8.0000 </r>
       <r>   -30.6825     0.0000     8.0000 </r>
       <r>   -30.4966     0.0000     8.0000 </r>
       <r>   -30.3108     0.0000     8.0000 </r>
       <r>   -30.1250     0.0000     8.0000 </r>
       <r>   -29.9392     0.0000     8.0000 </r>
       <r>   -29.7534     0.0000     8.0000 </r>
       <r>   -29.5676     0.0000     8.0000 </r>
       <r>   -29.3818     0.0000     8.0000 </r>
       <r>   -29.1960     0.0000     8.0000 </r>
       <r>   -29.0102     0.0000     8.0000 </r>
       <r>   -28.8244     0.0000     8.0000 </r>
       <r>   -28.6386     0.0000     8.0000 </r>
       <r>   -28.4528     0.0000     8.0000 </r>
       <r>   -28.2669     0.0000     8.0000 </r>
       <r>   -28.0811     0.0000     8.0000 </r>
       <r>   -27.8953     0.0000     8.0000 </r>
       <r>   -27.7095     0.0000     8.0000 </r>
       <r>   -27.5237     0.0000     8.0000 </r>
       <r>   -27.3379     0.0000     8.0000 </r>
       <r>   -27.1521     0.0000     8.0000 </r>
       <r>   -26.9663     0.0000     8.0000 </r>
       <r>   -26.7805     0.0000     8.0000 </r>
       <r>   -26.5947     0.0000     8.0000 </r>
       <r>   -26.4089     0.0000     8.0000 </r>
       <r>   -26.2231     0.0000     8.0000 </r>
       <r>   -26.0372     0.0000     8.0000 </r>
       <r>   -25.8514     0.0000     8.0000 </r>
       <r>   -25.6656     0.0000     8.0000 </r>
       <r>   -25.4798     0.0000     8.0000 </r>
       <r>   -25.2940     0.0000     8.0000 </r>
       <r>   -25.1082     0.0000     8.0000 </r>
       <r>   -24.9224     0.0000     8.0000 </r>
       <r>   -24.7366     0.0000     8.0000 </r>
       <r>   -24.5508     0.0000     8.0000 </r>
       <r>   -24.3650     0.0000     8.0000 </r>
       <r>   -24.1792     0.0000     8.0000 </r>
       <r>   -23.9934     0.0000     8.0000 </r>
       <r>   -23.8076     0.0000     8.0000 </r>
       <r>   -23.6217     0.0000     8.0000 </r>
       <r>   -23.4359     0.0000     8.0000 </r>
       <r>   -23.2501     0.0000     8.0000 </r>
       <r>   -23.0643     0.0000     8.0000 </r>
       <r>   -22.8785     0.0000     8.0000 </r>
       <r>   -22.6927     0.0000     8.0000 </r>
       <r>   -22.5069     0.0000     8.0000 </r>
       <r>   -22.3211     0.0000     8.0000 </r>
       <r>   -22.1353     0.0000     8.0000 </r>
       <r>   -21.9495     0.0000     8.0000 </r>
       <r>   -21.7637     0.0000     8.0000 </r>
       <r>   -21.5779     0.0000     8.0000 </r>
       <r>   -21.3920     0.0000     8.0000 </r>
       <r>   -21.2062     0.0000     8.0000 </r>
       <r>   -21.0204     0.0000     8.0000 </r>
       <r>   -20.8346     0.0000     8.0000 </r>
       <r>   -20.6488     0.0000     8.0000 </r>
       <r>   -20.4630     0.0000     8.0000 </r>
       <r>   -20.2772     0.0000     8.0000 </r>
       <r>   -20.0914     0.0000     8.0000 </r>
       <r>   -19.9056     0.0000     8.0000 </r>
       <r>   -19.7198     0.0000     8.0000 </r>
       <r>   -19.5340     0.0000     8.0000 </r>
       <r>   -19.3482     0.0000     8.0000 </r>
       <r>   -19.1623     0.0000     8.0000 </r>
       <r>   -18.9765     0.0000     8.0000 </r>
       <r>   -18.7907     0.0000    22.0000 </r>
       <r>   -18.6049     0.0000    94.0000 </r>
       <r>   -18.4191     0.0000   142.0000 </r>
       <r>   -18.2333     0.0000   164.0000 </r>
       <r>   -18.0475     0.0000   168.0000 </r>
       <r>   -17.8617     0.0000   168.0000 </r>
       <r>   -17.6759     0.0000   168.0000 </r>
       <r>   -17.4901     0.0000   168.0000 </r>
       <r>   -17.3043     0.0000   168.0000 </r>
       <r>   -17.1185     0.0000   168.0000 </r>
       <r>   -16.9326     0.0000   168.0000 </r>
       <r>   -16.7468     0.0000   168.0000 </r>
       <r>   -16.5610     0.0000   168.0000 </r>
       <r>   -16.3752     0.0000   168.0000 </r>
       <r>   -16.1894     0.0000   168.0000 </r>
       <r>   -16.0036     0.0000   168.0000 </r>
       <r>   -15.8178     0.0000   168.0000 </r>
       <r>   -15.6320     0.0000   168.0000 </r>
       <r>   -15.4462     0.0000   168.0000 </r>
       <r>   -15.2604     0.0000   168.0000 </r>
       <r>   -15.0746     0.0000   168.0000 </r>
       <r>   -14.8888     0.0000   168.0000 </r>
       <r>   -14.7030     0.0000   168.0000 </r>
       <r>   -14.5171     0.0000   168.0000 </r>
       <r>   -14.3313     0.0000   168.0000 </r>
       <r>   -14.1455     0.0000   168.0000 </r>
       <r>   -13.9597     0.0000   168.0000 </r>
       <r>   -13.7739     0.0000   170.0000 </r>
       <r>   -13.5881     0.0000   170.0000 </r>
       <r>   -13.4023    48.1202   172.0922 </r>
       <r>   -13.2165     0.0000   176.0000 </r>
       <r>   -13.0307   144.8776   184.0851 </r>
       <r>   -12.8449     0.0000   190.0000 </r>
       <r>   -12.6591     0.0000   196.0000 </r>
       <r>   -12.4733   253.9755   197.9787 </r>
       <r>   -12.2874     0.0000   200.0000 </r>
       <r>   -12.1016     0.0000   200.0000 </r>
       <r>   -11.9158     0.0000   200.0000 </r>
       <r>   -11.7300     0.0000   200.0000 </r>
       <r>   -11.5442     0.0000   200.0000 </r>
       <r>   -11.3584     0.0000   200.0000 </r>
       <r>   -11.1726     0.0000   200.0000 </r>
       <r>   -10.9868     0.0000   200.0000 </r>
       <r>   -10.8010     0.0000   200.0000 </r>
       <r>   -10.6152     0.0000   200.0000 </r>
       <r>   -10.4294     0.0000   200.0000 </r>
       <r>   -10.2436     0.0000   200.0000 </r>
       <r>   -10.0577     0.0000   200.0000 </r>
       <r>    -9.8719     0.0000   200.0000 </r>
       <r>    -9.6861     0.0000   200.0000 </r>
       <r>    -9.5003     0.0000   200.0000 </r>
       <r>    -9.3145    13.4717   200.7040 </r>
       <r>    -9.1287     0.0000   202.0000 </r>
       <r>    -8.9429     5.5019   203.5730 </r>
       <r>    -8.7571     5.7380   204.4966 </r>
       <r>    -8.5713    20.4797   207.7000 </r>
       <r>    -8.3855    23.1181   210.2000 </r>
       <r>    -8.1997    14.1503   213.9401 </r>
       <r>    -8.0139    14.3490   216.2601 </r>
       <r>    -7.8280    27.3038   220.9665 </r>
       <r>    -7.6422    21.9901   226.0960 </r>
       <r>    -7.4564    11.2506   228.0582 </r>
       <r>    -7.2706     8.4524   231.7597 </r>
       <r>    -7.0848     0.0000   232.0000 </r>
       <r>    -6.8990     0.0000   232.0000 </r>
       <r>    -6.7132     0.0000   232.0000 </r>
       <r>    -6.5274     0.0000   232.0000 </r>
       <r>    -6.3416     2.2824   232.0235 </r>
       <r>    -6.1558    26.3079   235.3051 </r>
       <r>    -5.9700    43.0773   239.1589 </r>
       <r>    -5.7842     6.1352   242.0459 </r>
       <r>    -5.5983    23.1463   246.7753 </r>
       <r>    -5.4125    17.3557   251.2185 </r>
       <r>    -5.2267    14.1740   254.1738 </r>
       <r>    -5.0409     1.3326   255.9897 </r>
       <r>    -4.8551    13.8068   257.0522 </r>
       <r>    -4.6693     8.7569   259.1079 </r>
       <r>    -4.4835     3.5068   260.2216 </r>
       <r>    -4.2977     9.7972   261.4570 </r>
       <r>    -4.1119     4.2474   263.2224 </r>
       <r>    -3.9261     2.0829   263.8104 </r>
       <r>    -3.7403     0.0768   263.9992 </r>
       <r>    -3.5545     0.0000   264.0000 </r>
       <r>    -3.3687     0.0000   264.0000 </r>
       <r>    -3.1828     0.0000   264.0000 </r>
       <r>    -2.9970     0.0000   264.0000 </r>
       <r>    -2.8112     0.0000   264.0000 </r>
       <r>    -2.6254     0.0000   264.0000 </r>
       <r>    -2.4396     0.0000   264.0000 </r>
       <r>    -2.2538     0.0000   264.0000 </r>
       <r>    -2.0680     0.0000   264.0000 </r>
       <r>    -1.8822     0.0000   264.0000 </r>
       <r>    -1.6964     0.0000   264.0000 </r>
       <r>    -1.5106     0.0000   264.0000 </r>
       <r>    -1.3248     0.0000   264.0000 </r>
       <r>    -1.1390     2.9379   264.0349 </r>
       <r>    -0.9531     8.7914   265.5416 </r>
       <r>    -0.7673     7.3891   267.2751 </r>
       <r>    -0.5815    25.1488   270.0387 </r>
       <r>    -0.3957    27.8672   275.2311 </r>
       <r>    -0.2099    35.7210   282.2890 </r>
       <r>    -0.0241    36.9673   288.8673 </r>
       <r>     0.1617    35.4492   295.3294 </r>
       <r>     0.3475    39.4834   302.2788 </r>
       <r>     0.5333    41.3771   308.8889 </r>
       <r>     0.7191    44.9767   316.4870 </r>
       <r>     0.9049    29.1139   323.9095 </r>
       <r>     1.0907    47.0542   332.0960 </r>
       <r>     1.2766    53.0221   341.9468 </r>
       <r>     1.4624    36.4552   351.0935 </r>
       <r>     1.6482    40.6937   358.7568 </r>
       <r>     1.8340    38.3259   366.4248 </r>
       <r>     2.0198    44.6631   374.9351 </r>
       <r>     2.2056    50.3752   383.7169 </r>
       <r>     2.3914    61.9882   394.0959 </r>
       <r>     2.5772    50.3066   403.8824 </r>
       <r>     2.7630    49.7278   414.4052 </r>
       <r>     2.9488    39.0692   423.9553 </r>
       <r>     3.1346    35.8480   431.0735 </r>
       <r>     3.3204    37.7217   438.3333 </r>
       <r>     3.5063    29.3395   445.0605 </r>
       <r>     3.6921    30.3383   449.5162 </r>
       <r>     3.8779    14.8797   453.8288 </r>
       <r>     4.0637     4.0229   455.8653 </r>
       <r>     4.2495     0.0000   456.0000 </r>
       <r>     4.4353     0.0000   456.0000 </r>
       <r>     4.6211     0.0000   456.0000 </r>
       <r>     4.8069     0.0000   456.0000 </r>
       <r>     4.9927     0.0000   456.0000 </r>
       <r>     5.1785     0.3533   456.0059 </r>
       <r>     5.3643     3.4670   456.3591 </r>
       <r>     5.5501     7.8435   457.3355 </r>
       <r>     5.7360    15.3544   459.6865 </r>
       <r>     5.9218    18.4018   462.7950 </r>
       <r>     6.1076    13.1788   465.6024 </r>
       <r>     6.2934    14.3304   468.0872 </r>
       <r>     6.4792    17.6978   471.0816 </r>
       <r>     6.6650    19.7182   474.5608 </r>
       <r>     6.8508    20.1821   478.3652 </r>
       <r>     7.0366    21.5289   482.0608 </r>
       <r>     7.2224    28.6776   486.7747 </r>
       <r>     7.4082    30.7114   492.4300 </r>
       <r>     7.5940    28.6933   497.2142 </r>
       <r>     7.7798    30.4817   502.6609 </r>
       <r>     7.9656    26.7577   508.8994 </r>
       <r>     8.1515    39.3387   514.0174 </r>
       <r>     8.3373    39.6546   520.6960 </r>
       <r>     8.5231    33.9400   526.3177 </r>
       <r>     8.7089    30.5716   532.3360 </r>
       <r>     8.8947    30.2588   537.0127 </r>
       <r>     9.0805    21.8819   541.9988 </r>
       <r>     9.2663    17.8018   545.5068 </r>
       <r>     9.4521    19.1849   550.0902 </r>
       <r>     9.6379     5.2195   552.3738 </r>
       <r>     9.8237    10.2746   553.6081 </r>
       <r>    10.0095    18.7160   555.9153 </r>
       <r>    10.1953    15.0488   559.6400 </r>
       <r>    10.3812     0.0000   560.0000 </r>
       <r>    10.5670     0.0000   560.0000 </r>
       <r>    10.7528     0.0000   560.0000 </r>
       <r>    10.9386     0.0000   560.0000 </r>
       <r>    11.1244     0.0000   560.0000 </r>
       <r>    11.3102     0.0000   560.0000 </r>
       <r>    11.4960     0.0000   560.0000 </r>
       <r>    11.6818     0.0000   560.0000 </r>
       <r>    11.8676     0.0000   560.0000 </r>
       <r>    12.0534     0.0000   560.0000 </r>
       <r>    12.2392     0.0000   560.0000 </r>
       <r>    12.4250     0.0000   560.0000 </r>
       <r>    12.6109     0.0000   560.0000 </r>
       <r>    12.7967     0.0000   560.0000 </r>
      </set>
     </set>
    </array>
   </total>
  </dos>
 </calculation>
 <structure name="finalpos" >
  <crystal>
   <varray name="basis" >
    <v>      11.28090533       0.20136142      -0.06356458 </v>
    <v>       0.17940635       9.46652579       0.28555979 </v>
    <v>      -0.07489034       0.32527074      11.24535737 </v>
   </varray>
   <i name="volume">   1199.39560584 </i>
   <varray name="rec_basis" >
    <v>       0.08867932      -0.00169992       0.00063974 </v>
    <v>      -0.00190517       0.10576415      -0.00307190 </v>
    <v>       0.00054964      -0.00269534       0.08900721 </v>
   </varray>
  </crystal>
  <varray name="positions" >
   <v>       0.47838721       0.04897132       0.41280677 </v>
   <v>       0.92248220       0.02069533       0.36605899 </v>
   <v>       0.37850163       0.02808819       0.70005165 </v>
   <v>       0.89240912      -0.02409748       0.05140977 </v>
   <v>       0.66276667       0.00564402       0.18868311 </v>
   <v>       0.13205654      -0.00519953       0.93533094 </v>
   <v>       0.13066645       0.03681783       0.67885478 </v>
   <v>       0.62987990       0.00849231       0.92715768 </v>
   <v>       0.62454089       0.02712889       0.66908018 </v>
   <v>       0.87612308       0.02024912       0.70363797 </v>
   <v>       0.00797019       0.31095766       0.06126102 </v>
   <v>       0.24796526       0.64725007       0.06468959 </v>
   <v>       0.18844529       0.00307556       0.22570891 </v>
   <v>       0.48452747       0.74348510       0.30670905 </v>
   <v>       0.50050601       0.31336589       0.06792253 </v>
   <v>       0.74482591       0.67473749       0.06370748 </v>
   <v>       0.75402214       0.30451249       0.30596631 </v>
   <v>       0.01237247       0.66295925       0.30281993 </v>
   <v>      -0.00286914       0.33855517       0.55300158 </v>
   <v>       0.25376220       0.76796145       0.51470348 </v>
   <v>       0.24437410       0.32756383       0.81034959 </v>
   <v>       0.49554572       0.70870412       0.80492005 </v>
   <v>       0.47832572       0.33763495       0.54394502 </v>
   <v>       0.74732100       0.71812422       0.55397421 </v>
   <v>       0.73793210       0.33723233       0.80171751 </v>
   <v>       0.00846260       0.69292309       0.80084273 </v>
   <v>       0.24772035       0.32695974       0.06241735 </v>
   <v>      -0.01189503       0.67100435       0.05186995 </v>
   <v>       0.50305522       0.29561845       0.31030149 </v>
   <v>       0.23433490       0.57695323       0.29452785 </v>
   <v>       0.74863998       0.35848189       0.06120449 </v>
   <v>       0.49048893       0.67157319       0.04639837 </v>
   <v>      -0.00017502       0.32350864       0.31607633 </v>
   <v>       0.74091378       0.65174441       0.29698819 </v>
   <v>       0.23523091       0.33537730       0.56867132 </v>
   <v>      -0.01620160       0.67998642       0.55282712 </v>
   <v>       0.49657177       0.36206665       0.81040433 </v>
   <v>       0.23518992       0.66034308       0.80180412 </v>
   <v>       0.73666183       0.36447115       0.56376643 </v>
   <v>       0.48315570       0.68169403       0.54730621 </v>
   <v>       0.99431199       0.36922211       0.81729562 </v>
   <v>       0.73191823       0.65368606       0.79569667 </v>
   <v>       0.55527297       0.10213781       0.05951545 </v>
   <v>       0.21925931       0.88334445       0.07189805 </v>
   <v>       0.32054583      -0.10897464       0.35189384 </v>
   <v>       0.04540314       0.89249935       0.30639635 </v>
   <v>       0.02562003       0.08798509       0.05044680 </v>
   <v>       0.73923180       0.90753809       0.04978092 </v>
   <v>       0.78860332       0.09019378       0.27932746 </v>
   <v>       0.56337225       0.93191375       0.31394216 </v>
   <v>       0.49466970       0.11612067       0.57546901 </v>
   <v>       0.26128230       0.94787542       0.60345994 </v>
   <v>       0.22652557       0.10125441       0.81461315 </v>
   <v>       0.01760623       0.92998359       0.80044994 </v>
   <v>      -0.01225231       0.11736255       0.59440309 </v>
   <v>       0.76034705       0.92956087       0.59973501 </v>
   <v>       0.73561674       0.10039530       0.79638808 </v>
   <v>       0.52689149       0.93200617       0.79827408 </v>
  </varray>
 </structure>
</modeling>
